----------------------------------------
PBS: Begin PBS Prologue Fri Feb  9 14:55:39 CST 2018 1518209739
PBS: Job ID:		22520803.qsched03.quest.it.northwestern.edu
PBS: Username:		jam119
PBS: Group:		jam119
PBS: Executing queue:     buyin
PBS: Job name:		test-bench
PBS: Account:		b1030
----------------------------------------
   The following variables are not
   guaranteed to be the same in 
   prologue and the job run script  
----------------------------------------
PBS: Temporary Dir($TMPDIR):	/tmp/22520803.qsched03.quest.it.northwestern.edu
PBS: Master Node($PBS_MSHOST):		qgpu6004
PBS: node file($PBS_NODEFILE):  /hpc/opt/torque6/nodes/qgpu6004/aux//22520803.qsched03.quest.it.northwestern.edu
PBS: PATH (in prologue) : /bin:/usr/bin
PBS: WORKDIR ($PBS_O_WORKDIR) is:  /projects/b1021/Jaime_pmf/test-wall/addatomic/250000_par
----------------------------------------
PBS: End PBS Prologue Fri Feb  9 14:55:39 CST 2018 1518209739
HOOMD-blue v2.1.8-722-gde67388 CUDA (7.5) SINGLE SSE SSE2 
Compiled: 02/07/2018
Copyright 2009-2017 The Regents of the University of Michigan.
-----
You are using HOOMD-blue. Please cite the following:
* J A Anderson, C D Lorenz, and A Travesset. "General purpose molecular dynamics
  simulations fully implemented on graphics processing units", Journal of
  Computational Physics 227 (2008) 5342--5359
* J Glaser, T D Nguyen, J A Anderson, P Liu, F Spiga, J A Millan, D C Morse, and
  S C Glotzer. "Strong scaling of general-purpose molecular dynamics simulations
  on GPUs", Computer Physics Communications 192 (2015) 97--107
-----
HOOMD-blue is running on the following GPU(s):
 [0]             Tesla K80  13 SM_3.7 @ 0.823 GHz, 11439 MiB DRAM
benchmark.py:029  |  system = deprecated.init.read_xml("250000.xml")
notice(2): Reading 250000.xml...
notice(2): --- hoomd_xml file read summary
notice(2): 250000 positions at timestep 0
notice(2): 250000 masses
notice(2): 250000 diameters
notice(2): 2 particle types
notice(2): 250000 particle body values
notice(2): 250000 charges
notice(2): Group "all" created containing 250000 particles
benchmark.py:030  |  group_A = group.type(name='a-particles', type = 'A')
notice(2): Group "a-particles" created containing 249999 particles
benchmark.py:033  |  nl =nlist.cell()
benchmark.py:034  |  c.sorter.disable()
benchmark.py:035  |  slj= pair.slj(r_cut = 3.5, nlist=nl)
notice(2): Notice: slj set d_max=1.0
benchmark.py:036  |  slj.set_params(mode="shift")
pair.py:801  |          pair.set_params(self, mode=mode);
benchmark.py:037  |  slj.pair_coeff.set('A','A' , epsilon=1.0, sigma=1.0 )
benchmark.py:038  |  slj.pair_coeff.set('A','B' , epsilon=0.0, sigma=1.0 )
benchmark.py:039  |  slj.pair_coeff.set('B','B' , epsilon=0.0, sigma=1.0 )
benchmark.py:049  |  wall_force_slj=wall.lj(walls, r_cut=4.0,active_planes=[0,1])
benchmark.py:050  |  wall_force_slj.force_coeff.set('A', epsilon= 1.5,r_cut=4,sigma=sigma,r_extrap = 0.05)
benchmark.py:051  |  wall_force_slj.force_coeff.set('B', epsilon= 0,r_cut=4,sigma=sigma,r_extrap = 0.05)
benchmark.py:063  |  logger = analyze.log(quantities=['temperature' , 'potential_energy', 'kinetic_energy'],
												 period=5e2, filename='log.log', overwrite=True)
benchmark.py:070  |  integrate.mode_standard(dt=0.001)
benchmark.py:073  |  integrator = integrate.nve(group_A , limit = 0.0001)
benchmark.py:074  |  zero = update.zero_momentum(period =100)
benchmark.py:076  |  run(1e3)
notice(2): -- Neighborlist exclusion statistics -- :
notice(2): Particles with 0 exclusions             : 250000
notice(2): Neighbors included by diameter          : yes
notice(2): Neighbors excluded when in the same body: no
** starting run **
Time 00:00:10 | Step 1000 / 1000 | TPS 121.438 | ETA 00:00:00
Average TPS: 121.437
---------
-- Neighborlist stats:
0 normal updates / 0 forced updates / 0 dangerous updates
n_neigh_min: 33 / n_neigh_max: 58 / n_neigh_avg: 57.16
shortest rebuild period: 100
-- Cell list stats:
Dimension: 25, 25, 28
n_min    : 0 / n_max: 26 / n_avg: 14.2857
** run complete **
benchmark.py:077  |  integrator.disable()
benchmark.py:078  |  zero.disable()
benchmark.py:085  |  integrator = integrate.nvt(group=group_A , tau = 0.65 , kT = 0.001)
benchmark.py:086  |  integrator.set_params(kT=variant.linear_interp(points=[(0, logger.query('temperature')), (2e6, 0.75)]))
benchmark.py:088  |  run(2e6)
** starting run **
Time 00:00:20 | Step 2598 / 2001000 | TPS 159.758 | ETA 03:28:28
Time 00:00:30 | Step 4188 / 2001000 | TPS 158.949 | ETA 03:29:22
Time 00:00:40 | Step 5783 / 2001000 | TPS 159.445 | ETA 03:28:33
Time 00:00:50 | Step 7367 / 2001000 | TPS 158.362 | ETA 03:29:49
Time 00:01:00 | Step 8927 / 2001000 | TPS 155.986 | ETA 03:32:50
Time 00:01:10 | Step 10487 / 2001000 | TPS 155.995 | ETA 03:32:40
Time 00:01:20 | Step 12055 / 2001000 | TPS 156.706 | ETA 03:31:32
Time 00:01:30 | Step 13635 / 2001000 | TPS 157.982 | ETA 03:29:39
Time 00:01:40 | Step 15194 / 2001000 | TPS 155.88 | ETA 03:32:19
Time 00:01:50 | Step 16737 / 2001000 | TPS 154.268 | ETA 03:34:22
Time 00:02:00 | Step 18267 / 2001000 | TPS 152.924 | ETA 03:36:05
Time 00:02:10 | Step 19792 / 2001000 | TPS 152.495 | ETA 03:36:31
Time 00:02:20 | Step 21317 / 2001000 | TPS 152.432 | ETA 03:36:27
Time 00:02:30 | Step 22618 / 2001000 | TPS 130.06 | ETA 04:13:31
Time 00:02:40 | Step 24102 / 2001000 | TPS 148.328 | ETA 03:42:07
Time 00:02:50 | Step 25546 / 2001000 | TPS 144.32 | ETA 03:48:08
Time 00:03:00 | Step 26981 / 2001000 | TPS 143.496 | ETA 03:49:16
Time 00:03:10 | Step 28409 / 2001000 | TPS 142.598 | ETA 03:50:33
Time 00:03:20 | Step 29780 / 2001000 | TPS 137.075 | ETA 03:59:40
Time 00:03:30 | Step 31169 / 2001000 | TPS 138.833 | ETA 03:56:28
Time 00:03:40 | Step 32493 / 2001000 | TPS 132.321 | ETA 04:07:56
Time 00:03:50 | Step 33842 / 2001000 | TPS 134.893 | ETA 04:03:03
Time 00:04:00 | Step 35173 / 2001000 | TPS 133.091 | ETA 04:06:10
Time 00:04:10 | Step 36442 / 2001000 | TPS 126.809 | ETA 04:18:12
Time 00:04:20 | Step 37741 / 2001000 | TPS 129.9 | ETA 04:11:53
Time 00:04:30 | Step 38989 / 2001000 | TPS 124.749 | ETA 04:22:07
Time 00:04:40 | Step 40240 / 2001000 | TPS 125.073 | ETA 04:21:16
Time 00:04:50 | Step 41484 / 2001000 | TPS 124.042 | ETA 04:23:17
Time 00:05:00 | Step 42698 / 2001000 | TPS 121.319 | ETA 04:29:01
Time 00:05:10 | Step 43922 / 2001000 | TPS 122.398 | ETA 04:26:29
Time 00:05:20 | Step 45111 / 2001000 | TPS 118.873 | ETA 04:34:13
Time 00:05:30 | Step 46288 / 2001000 | TPS 117.612 | ETA 04:36:59
Time 00:05:40 | Step 47478 / 2001000 | TPS 118.954 | ETA 04:33:42
Time 00:05:50 | Step 48635 / 2001000 | TPS 115.678 | ETA 04:41:17
Time 00:06:00 | Step 49810 / 2001000 | TPS 117.459 | ETA 04:36:51
Time 00:06:10 | Step 50966 / 2001000 | TPS 115.564 | ETA 04:41:14
Time 00:06:20 | Step 52092 / 2001000 | TPS 112.508 | ETA 04:48:42
Time 00:06:30 | Step 53231 / 2001000 | TPS 113.809 | ETA 04:45:14
Time 00:06:40 | Step 54346 / 2001000 | TPS 111.458 | ETA 04:51:05
Time 00:06:50 | Step 55463 / 2001000 | TPS 111.623 | ETA 04:50:29
Time 00:07:00 | Step 56582 / 2001000 | TPS 111.877 | ETA 04:49:39
Time 00:07:10 | Step 57668 / 2001000 | TPS 108.578 | ETA 04:58:18
Time 00:07:20 | Step 58765 / 2001000 | TPS 109.611 | ETA 04:55:19
Time 00:07:30 | Step 59863 / 2001000 | TPS 109.757 | ETA 04:54:45
Time 00:07:40 | Step 60928 / 2001000 | TPS 106.407 | ETA 05:03:52
Time 00:07:50 | Step 62010 / 2001000 | TPS 108.163 | ETA 04:58:46
Time 00:08:00 | Step 63089 / 2001000 | TPS 107.9 | ETA 04:59:20
Time 00:08:10 | Step 64145 / 2001000 | TPS 105.479 | ETA 05:06:02
Time 00:08:20 | Step 65203 / 2001000 | TPS 105.793 | ETA 05:04:57
Time 00:08:30 | Step 66258 / 2001000 | TPS 105.498 | ETA 05:05:39
Time 00:08:40 | Step 67285 / 2001000 | TPS 102.673 | ETA 05:13:53
Time 00:08:50 | Step 68330 / 2001000 | TPS 104.467 | ETA 05:08:20
Time 00:09:00 | Step 69372 / 2001000 | TPS 104.178 | ETA 05:09:01
Time 00:09:10 | Step 70393 / 2001000 | TPS 102.008 | ETA 05:15:26
Time 00:09:20 | Step 71420 / 2001000 | TPS 102.695 | ETA 05:13:09
Time 00:09:31 | Step 72448 / 2001000 | TPS 102.757 | ETA 05:12:48
Time 00:09:41 | Step 73457 / 2001000 | TPS 100.409 | ETA 05:19:56
Time 00:09:51 | Step 74462 / 2001000 | TPS 100.425 | ETA 05:19:43
Time 00:10:01 | Step 75479 / 2001000 | TPS 101.623 | ETA 05:15:47
Time 00:10:11 | Step 76476 / 2001000 | TPS 99.6366 | ETA 05:21:55
Time 00:10:21 | Step 77461 / 2001000 | TPS 98.4656 | ETA 05:25:35
Time 00:10:31 | Step 78465 / 2001000 | TPS 100.322 | ETA 05:19:23
Time 00:10:41 | Step 79441 / 2001000 | TPS 97.5097 | ETA 05:28:26
Time 00:10:51 | Step 80426 / 2001000 | TPS 98.4636 | ETA 05:25:05
Time 00:11:01 | Step 81411 / 2001000 | TPS 98.4914 | ETA 05:24:49
Time 00:11:11 | Step 82397 / 2001000 | TPS 98.5199 | ETA 05:24:34
Time 00:11:21 | Step 83363 / 2001000 | TPS 96.5734 | ETA 05:30:56
Time 00:11:31 | Step 84341 / 2001000 | TPS 97.7267 | ETA 05:26:52
Time 00:11:41 | Step 85315 / 2001000 | TPS 97.3562 | ETA 05:27:57
Time 00:11:51 | Step 86275 / 2001000 | TPS 95.9613 | ETA 05:32:33
Time 00:12:01 | Step 87236 / 2001000 | TPS 96.0051 | ETA 05:32:13
Time 00:12:11 | Step 88202 / 2001000 | TPS 96.5428 | ETA 05:30:12
Time 00:12:21 | Step 89165 / 2001000 | TPS 96.2391 | ETA 05:31:05
Time 00:12:31 | Step 90106 / 2001000 | TPS 94.0675 | ETA 05:38:34
Time 00:12:41 | Step 91065 / 2001000 | TPS 95.8898 | ETA 05:31:58
Time 00:12:51 | Step 92021 / 2001000 | TPS 95.5622 | ETA 05:32:56
Time 00:13:01 | Step 92965 / 2001000 | TPS 94.3641 | ETA 05:36:59
Time 00:13:11 | Step 93903 / 2001000 | TPS 93.7546 | ETA 05:39:01
Time 00:13:21 | Step 94852 / 2001000 | TPS 94.8419 | ETA 05:34:58
Time 00:13:31 | Step 95796 / 2001000 | TPS 94.3815 | ETA 05:36:26
Time 00:13:41 | Step 96722 / 2001000 | TPS 92.5092 | ETA 05:43:04
Time 00:13:51 | Step 97653 / 2001000 | TPS 93.0242 | ETA 05:41:00
Time 00:14:01 | Step 98588 / 2001000 | TPS 93.4358 | ETA 05:39:20
Time 00:14:11 | Step 99521 / 2001000 | TPS 93.2189 | ETA 05:39:58
Time 00:14:21 | Step 100432 / 2001000 | TPS 91.0816 | ETA 05:47:46
Time 00:14:31 | Step 101263 / 2001000 | TPS 83.0848 | ETA 06:21:05
Time 00:14:41 | Step 102193 / 2001000 | TPS 92.9066 | ETA 05:40:37
Time 00:14:51 | Step 103106 / 2001000 | TPS 91.2691 | ETA 05:46:34
Time 00:15:01 | Step 104016 / 2001000 | TPS 90.9975 | ETA 05:47:26
Time 00:15:11 | Step 104939 / 2001000 | TPS 92.2751 | ETA 05:42:27
Time 00:15:21 | Step 105860 / 2001000 | TPS 92.0187 | ETA 05:43:15
Time 00:15:31 | Step 106763 / 2001000 | TPS 90.2994 | ETA 05:49:37
Time 00:15:41 | Step 107667 / 2001000 | TPS 90.346 | ETA 05:49:16
Time 00:15:51 | Step 108578 / 2001000 | TPS 91.0627 | ETA 05:46:21
Time 00:16:01 | Step 109491 / 2001000 | TPS 91.2866 | ETA 05:45:20
Time 00:16:11 | Step 110375 / 2001000 | TPS 88.3936 | ETA 05:56:28
Time 00:16:21 | Step 111277 / 2001000 | TPS 90.1455 | ETA 05:49:23
Time 00:16:31 | Step 112184 / 2001000 | TPS 90.6333 | ETA 05:47:20
Time 00:16:41 | Step 113087 / 2001000 | TPS 90.2343 | ETA 05:48:42
Time 00:16:51 | Step 113960 / 2001000 | TPS 87.207 | ETA 06:00:38
Time 00:17:01 | Step 114851 / 2001000 | TPS 89.0204 | ETA 05:53:07
Time 00:17:11 | Step 115747 / 2001000 | TPS 89.5301 | ETA 05:50:57
Time 00:17:21 | Step 116631 / 2001000 | TPS 88.3027 | ETA 05:55:39
Time 00:17:31 | Step 117512 / 2001000 | TPS 88.0647 | ETA 05:56:27
Time 00:17:41 | Step 118392 / 2001000 | TPS 87.964 | ETA 05:56:42
Time 00:17:51 | Step 119272 / 2001000 | TPS 87.9726 | ETA 05:56:29
Time 00:18:01 | Step 120147 / 2001000 | TPS 87.493 | ETA 05:58:17
Time 00:18:11 | Step 121023 / 2001000 | TPS 87.5269 | ETA 05:57:58
Time 00:18:21 | Step 121894 / 2001000 | TPS 87.0214 | ETA 05:59:53
Time 00:18:31 | Step 122762 / 2001000 | TPS 86.7939 | ETA 06:00:40
Time 00:18:41 | Step 123628 / 2001000 | TPS 86.5953 | ETA 06:01:19
Time 00:18:51 | Step 124495 / 2001000 | TPS 86.6821 | ETA 06:00:48
Time 00:19:01 | Step 125358 / 2001000 | TPS 86.2093 | ETA 06:02:36
Time 00:19:11 | Step 126218 / 2001000 | TPS 85.9997 | ETA 06:03:19
Time 00:19:21 | Step 127076 / 2001000 | TPS 85.7966 | ETA 06:04:01
Time 00:19:31 | Step 127933 / 2001000 | TPS 85.6479 | ETA 06:04:29
Time 00:19:41 | Step 128788 / 2001000 | TPS 85.4564 | ETA 06:05:08
Time 00:19:51 | Step 129641 / 2001000 | TPS 85.2765 | ETA 06:05:44
Time 00:20:01 | Step 130495 / 2001000 | TPS 85.3914 | ETA 06:05:05
Time 00:20:11 | Step 131348 / 2001000 | TPS 85.2678 | ETA 06:05:26
Time 00:20:21 | Step 132197 / 2001000 | TPS 84.8211 | ETA 06:07:12
Time 00:20:31 | Step 133044 / 2001000 | TPS 84.6545 | ETA 06:07:45
Time 00:20:41 | Step 133892 / 2001000 | TPS 84.7689 | ETA 06:07:05
Time 00:20:51 | Step 134736 / 2001000 | TPS 84.3282 | ETA 06:08:50
Time 00:21:01 | Step 135576 / 2001000 | TPS 83.9128 | ETA 06:10:30
Time 00:21:11 | Step 136419 / 2001000 | TPS 84.2958 | ETA 06:08:39
Time 00:21:21 | Step 137261 / 2001000 | TPS 84.1651 | ETA 06:09:03
Time 00:21:31 | Step 138099 / 2001000 | TPS 83.7656 | ETA 06:10:39
Time 00:21:41 | Step 138939 / 2001000 | TPS 83.9227 | ETA 06:09:47
Time 00:21:51 | Step 139775 / 2001000 | TPS 83.5267 | ETA 06:11:22
Time 00:22:01 | Step 140612 / 2001000 | TPS 83.6435 | ETA 06:10:41
Time 00:22:11 | Step 141445 / 2001000 | TPS 83.257 | ETA 06:12:15
Time 00:22:21 | Step 142279 / 2001000 | TPS 83.3794 | ETA 06:11:32
Time 00:22:31 | Step 143112 / 2001000 | TPS 83.2228 | ETA 06:12:04
Time 00:22:41 | Step 143941 / 2001000 | TPS 82.5701 | ETA 06:14:50
Time 00:22:51 | Step 144771 / 2001000 | TPS 82.9468 | ETA 06:12:58
Time 00:23:01 | Step 145600 / 2001000 | TPS 82.8458 | ETA 06:13:15
Time 00:23:11 | Step 146427 / 2001000 | TPS 82.6803 | ETA 06:13:50
Time 00:23:21 | Step 147250 / 2001000 | TPS 82.261 | ETA 06:15:34
Time 00:23:31 | Step 148075 / 2001000 | TPS 82.4058 | ETA 06:14:45
Time 00:23:41 | Step 148901 / 2001000 | TPS 82.5474 | ETA 06:13:56
Time 00:23:51 | Step 149723 / 2001000 | TPS 82.1547 | ETA 06:15:34
Time 00:24:01 | Step 150541 / 2001000 | TPS 81.7499 | ETA 06:17:15
Time 00:24:11 | Step 151358 / 2001000 | TPS 81.6908 | ETA 06:17:21
Time 00:24:21 | Step 152176 / 2001000 | TPS 81.748 | ETA 06:16:56
Time 00:24:31 | Step 152993 / 2001000 | TPS 81.6336 | ETA 06:17:17
Time 00:24:41 | Step 153809 / 2001000 | TPS 81.5071 | ETA 06:17:42
Time 00:24:51 | Step 154618 / 2001000 | TPS 80.8918 | ETA 06:20:25
Time 00:25:01 | Step 155431 / 2001000 | TPS 81.2378 | ETA 06:18:38
Time 00:25:11 | Step 156243 / 2001000 | TPS 81.1288 | ETA 06:18:58
Time 00:25:21 | Step 157051 / 2001000 | TPS 80.7431 | ETA 06:20:37
Time 00:25:31 | Step 157858 / 2001000 | TPS 80.6213 | ETA 06:21:01
Time 00:25:41 | Step 158666 / 2001000 | TPS 80.764 | ETA 06:20:11
Time 00:25:51 | Step 159473 / 2001000 | TPS 80.6415 | ETA 06:20:35
Time 00:26:01 | Step 160276 / 2001000 | TPS 80.2238 | ETA 06:22:24
Time 00:26:11 | Step 161080 / 2001000 | TPS 80.3866 | ETA 06:21:28
Time 00:26:21 | Step 161880 / 2001000 | TPS 79.9739 | ETA 06:23:16
Time 00:26:31 | Step 162682 / 2001000 | TPS 80.1045 | ETA 06:22:28
Time 00:26:41 | Step 163481 / 2001000 | TPS 79.8119 | ETA 06:23:43
Time 00:26:51 | Step 164280 / 2001000 | TPS 79.8903 | ETA 06:23:10
Time 00:27:01 | Step 165078 / 2001000 | TPS 79.769 | ETA 06:23:35
Time 00:27:11 | Step 165873 / 2001000 | TPS 79.4087 | ETA 06:25:09
Time 00:27:21 | Step 166669 / 2001000 | TPS 79.5866 | ETA 06:24:08
Time 00:27:31 | Step 167464 / 2001000 | TPS 79.4498 | ETA 06:24:37
Time 00:27:41 | Step 168258 / 2001000 | TPS 79.3858 | ETA 06:24:46
Time 00:27:51 | Step 169051 / 2001000 | TPS 79.2959 | ETA 06:25:02
Time 00:28:01 | Step 169843 / 2001000 | TPS 79.1587 | ETA 06:25:32
Time 00:28:11 | Step 170634 / 2001000 | TPS 79.0574 | ETA 06:25:52
Time 00:28:21 | Step 171424 / 2001000 | TPS 78.9716 | ETA 06:26:07
Time 00:28:31 | Step 172210 / 2001000 | TPS 78.5582 | ETA 06:27:59
Time 00:28:41 | Step 172998 / 2001000 | TPS 78.7758 | ETA 06:26:45
Time 00:28:51 | Step 173782 / 2001000 | TPS 78.3555 | ETA 06:28:39
Time 00:29:01 | Step 174571 / 2001000 | TPS 78.8456 | ETA 06:26:04
Time 00:29:11 | Step 175356 / 2001000 | TPS 78.4766 | ETA 06:27:43
Time 00:29:21 | Step 176138 / 2001000 | TPS 78.1074 | ETA 06:29:23
Time 00:29:31 | Step 176924 / 2001000 | TPS 78.5916 | ETA 06:26:49
Time 00:29:41 | Step 177707 / 2001000 | TPS 78.247 | ETA 06:28:21
Time 00:29:51 | Step 178492 / 2001000 | TPS 78.4731 | ETA 06:27:04
Time 00:30:01 | Step 179274 / 2001000 | TPS 78.1032 | ETA 06:28:44
Time 00:30:11 | Step 180055 / 2001000 | TPS 78.076 | ETA 06:28:42
Time 00:30:21 | Step 180836 / 2001000 | TPS 78.0124 | ETA 06:28:51
Time 00:30:31 | Step 181613 / 2001000 | TPS 77.6733 | ETA 06:30:23
Time 00:30:41 | Step 182392 / 2001000 | TPS 77.8721 | ETA 06:29:13
Time 00:30:51 | Step 183171 / 2001000 | TPS 77.8064 | ETA 06:29:23
Time 00:31:01 | Step 183949 / 2001000 | TPS 77.7806 | ETA 06:29:21
Time 00:31:11 | Step 184729 / 2001000 | TPS 77.9891 | ETA 06:28:08
Time 00:31:21 | Step 185506 / 2001000 | TPS 77.6415 | ETA 06:29:43
Time 00:31:31 | Step 186283 / 2001000 | TPS 77.6116 | ETA 06:29:42
Time 00:31:41 | Step 187059 / 2001000 | TPS 77.533 | ETA 06:29:55
Time 00:31:51 | Step 187834 / 2001000 | TPS 77.4508 | ETA 06:30:10
Time 00:32:01 | Step 188611 / 2001000 | TPS 77.6714 | ETA 06:28:54
Time 00:32:11 | Step 189385 / 2001000 | TPS 77.3376 | ETA 06:30:24
Time 00:32:21 | Step 190158 / 2001000 | TPS 77.2953 | ETA 06:30:27
Time 00:32:31 | Step 190930 / 2001000 | TPS 77.1972 | ETA 06:30:47
Time 00:32:41 | Step 191702 / 2001000 | TPS 77.1904 | ETA 06:30:39
Time 00:32:51 | Step 192474 / 2001000 | TPS 77.1253 | ETA 06:30:49
Time 00:33:01 | Step 193245 / 2001000 | TPS 77.0936 | ETA 06:30:48
Time 00:33:11 | Step 194016 / 2001000 | TPS 77.0699 | ETA 06:30:46
Time 00:33:21 | Step 194787 / 2001000 | TPS 77.0548 | ETA 06:30:40
Time 00:33:31 | Step 195557 / 2001000 | TPS 76.9732 | ETA 06:30:55
Time 00:33:41 | Step 196329 / 2001000 | TPS 77.1961 | ETA 06:29:37
Time 00:33:51 | Step 197098 / 2001000 | TPS 76.8593 | ETA 06:31:10
Time 00:34:01 | Step 197867 / 2001000 | TPS 76.8562 | ETA 06:31:01
Time 00:34:11 | Step 198633 / 2001000 | TPS 76.5186 | ETA 06:32:34
Time 00:34:21 | Step 199404 / 2001000 | TPS 77.0624 | ETA 06:29:38
Time 00:34:31 | Step 200172 / 2001000 | TPS 76.731 | ETA 06:31:09
Time 00:34:41 | Step 200939 / 2001000 | TPS 76.6794 | ETA 06:31:15
Time 00:34:51 | Step 201619 / 2001000 | TPS 67.9939 | ETA 07:21:03
Time 00:35:01 | Step 202386 / 2001000 | TPS 76.6417 | ETA 06:31:07
Time 00:35:11 | Step 203152 / 2001000 | TPS 76.5719 | ETA 06:31:19
Time 00:35:21 | Step 203918 / 2001000 | TPS 76.5635 | ETA 06:31:11
Time 00:35:31 | Step 204686 / 2001000 | TPS 76.7615 | ETA 06:30:01
Time 00:35:41 | Step 205448 / 2001000 | TPS 76.163 | ETA 06:32:55
Time 00:35:51 | Step 206215 / 2001000 | TPS 76.6548 | ETA 06:30:13
Time 00:36:01 | Step 206979 / 2001000 | TPS 76.3413 | ETA 06:31:39
Time 00:36:11 | Step 207742 / 2001000 | TPS 76.2859 | ETA 06:31:47
Time 00:36:21 | Step 208505 / 2001000 | TPS 76.254 | ETA 06:31:46
Time 00:36:31 | Step 209271 / 2001000 | TPS 76.5091 | ETA 06:30:18
Time 00:36:41 | Step 210033 / 2001000 | TPS 76.131 | ETA 06:32:04
Time 00:36:51 | Step 210794 / 2001000 | TPS 76.0954 | ETA 06:32:05
Time 00:37:01 | Step 211555 / 2001000 | TPS 76.01 | ETA 06:32:22
Time 00:37:11 | Step 212315 / 2001000 | TPS 75.9974 | ETA 06:32:16
Time 00:37:21 | Step 213075 / 2001000 | TPS 75.9279 | ETA 06:32:27
Time 00:37:32 | Step 213835 / 2001000 | TPS 75.9294 | ETA 06:32:17
Time 00:37:42 | Step 214594 / 2001000 | TPS 75.8509 | ETA 06:32:31
Time 00:37:52 | Step 215353 / 2001000 | TPS 75.8189 | ETA 06:32:31
Time 00:38:02 | Step 216111 / 2001000 | TPS 75.7823 | ETA 06:32:32
Time 00:38:12 | Step 216869 / 2001000 | TPS 75.7247 | ETA 06:32:40
Time 00:38:22 | Step 217629 / 2001000 | TPS 75.9937 | ETA 06:31:07
Time 00:38:32 | Step 218389 / 2001000 | TPS 75.9628 | ETA 06:31:06
Time 00:38:42 | Step 219146 / 2001000 | TPS 75.6292 | ETA 06:32:40
Time 00:38:52 | Step 219906 / 2001000 | TPS 75.9111 | ETA 06:31:02
Time 00:39:02 | Step 220665 / 2001000 | TPS 75.859 | ETA 06:31:08
Time 00:39:12 | Step 221421 / 2001000 | TPS 75.5611 | ETA 06:32:31
Time 00:39:22 | Step 222177 / 2001000 | TPS 75.5257 | ETA 06:32:32
Time 00:39:32 | Step 222935 / 2001000 | TPS 75.7882 | ETA 06:31:00
Time 00:39:42 | Step 223690 / 2001000 | TPS 75.4613 | ETA 06:32:32
Time 00:39:52 | Step 224445 / 2001000 | TPS 75.4447 | ETA 06:32:27
Time 00:40:02 | Step 225202 / 2001000 | TPS 75.6948 | ETA 06:30:59
Time 00:40:12 | Step 225957 / 2001000 | TPS 75.4179 | ETA 06:32:16
Time 00:40:22 | Step 226714 / 2001000 | TPS 75.6731 | ETA 06:30:46
Time 00:40:32 | Step 227465 / 2001000 | TPS 75.084 | ETA 06:33:40
Time 00:40:42 | Step 228222 / 2001000 | TPS 75.6189 | ETA 06:30:43
Time 00:40:52 | Step 228975 / 2001000 | TPS 75.2992 | ETA 06:32:13
Time 00:41:02 | Step 229728 / 2001000 | TPS 75.2418 | ETA 06:32:21
Time 00:41:12 | Step 230484 / 2001000 | TPS 75.5143 | ETA 06:30:46
Time 00:41:22 | Step 231236 / 2001000 | TPS 75.1889 | ETA 06:32:17
Time 00:41:32 | Step 231988 / 2001000 | TPS 75.1546 | ETA 06:32:18
Time 00:41:42 | Step 232742 / 2001000 | TPS 75.3914 | ETA 06:30:54
Time 00:41:52 | Step 233493 / 2001000 | TPS 75.0967 | ETA 06:32:16
Time 00:42:02 | Step 234244 / 2001000 | TPS 75.0545 | ETA 06:32:19
Time 00:42:12 | Step 234995 / 2001000 | TPS 75.0444 | ETA 06:32:12
Time 00:42:22 | Step 235745 / 2001000 | TPS 74.9938 | ETA 06:32:18
Time 00:42:32 | Step 236498 / 2001000 | TPS 75.2733 | ETA 06:30:41
Time 00:42:42 | Step 237251 / 2001000 | TPS 75.2285 | ETA 06:30:45
Time 00:42:52 | Step 238003 / 2001000 | TPS 75.1855 | ETA 06:30:48
Time 00:43:02 | Step 238752 / 2001000 | TPS 74.8967 | ETA 06:32:09
Time 00:43:12 | Step 239504 / 2001000 | TPS 75.1117 | ETA 06:30:51
Time 00:43:22 | Step 240256 / 2001000 | TPS 75.1165 | ETA 06:30:40
Time 00:43:32 | Step 241004 / 2001000 | TPS 74.7679 | ETA 06:32:19
Time 00:43:42 | Step 241755 / 2001000 | TPS 75.0838 | ETA 06:30:30
Time 00:43:52 | Step 242503 / 2001000 | TPS 74.752 | ETA 06:32:04
Time 00:44:02 | Step 243254 / 2001000 | TPS 75.0444 | ETA 06:30:22
Time 00:44:12 | Step 244002 / 2001000 | TPS 74.7399 | ETA 06:31:48
Time 00:44:22 | Step 244753 / 2001000 | TPS 75.0306 | ETA 06:30:07
Time 00:44:32 | Step 245503 / 2001000 | TPS 74.9925 | ETA 06:30:08
Time 00:44:42 | Step 246250 / 2001000 | TPS 74.6967 | ETA 06:31:31
Time 00:44:52 | Step 247000 / 2001000 | TPS 74.9338 | ETA 06:30:07
Time 00:45:02 | Step 247747 / 2001000 | TPS 74.6165 | ETA 06:31:36
Time 00:45:12 | Step 248497 / 2001000 | TPS 74.9078 | ETA 06:29:55
Time 00:45:22 | Step 249243 / 2001000 | TPS 74.5839 | ETA 06:31:27
Time 00:45:32 | Step 249992 / 2001000 | TPS 74.8445 | ETA 06:29:55
Time 00:45:42 | Step 250738 / 2001000 | TPS 74.5297 | ETA 06:31:24
Time 00:45:52 | Step 251487 / 2001000 | TPS 74.8108 | ETA 06:29:45
Time 00:46:02 | Step 252232 / 2001000 | TPS 74.4933 | ETA 06:31:15
Time 00:46:12 | Step 252977 / 2001000 | TPS 74.4541 | ETA 06:31:17
Time 00:46:22 | Step 253725 / 2001000 | TPS 74.7537 | ETA 06:29:33
Time 00:46:32 | Step 254470 / 2001000 | TPS 74.4441 | ETA 06:31:00
Time 00:46:42 | Step 255217 / 2001000 | TPS 74.6942 | ETA 06:29:32
Time 00:46:52 | Step 255964 / 2001000 | TPS 74.4024 | ETA 06:30:54
Time 00:47:02 | Step 256711 / 2001000 | TPS 74.6532 | ETA 06:29:25
Time 00:47:12 | Step 257458 / 2001000 | TPS 74.6427 | ETA 06:29:18
Time 00:47:22 | Step 258205 / 2001000 | TPS 74.6213 | ETA 06:29:15
Time 00:47:32 | Step 258949 / 2001000 | TPS 74.311 | ETA 06:30:42
Time 00:47:42 | Step 259695 / 2001000 | TPS 74.5613 | ETA 06:29:13
Time 00:47:52 | Step 260438 / 2001000 | TPS 74.2854 | ETA 06:30:30
Time 00:48:02 | Step 261184 / 2001000 | TPS 74.5332 | ETA 06:29:02
Time 00:48:12 | Step 261927 / 2001000 | TPS 74.2192 | ETA 06:30:31
Time 00:48:22 | Step 262675 / 2001000 | TPS 74.7673 | ETA 06:27:29
Time 00:48:32 | Step 263417 / 2001000 | TPS 74.1748 | ETA 06:30:25
Time 00:48:42 | Step 264162 / 2001000 | TPS 74.4446 | ETA 06:28:50
Time 00:48:52 | Step 264904 / 2001000 | TPS 74.1366 | ETA 06:30:17
Time 00:49:02 | Step 265649 / 2001000 | TPS 74.4097 | ETA 06:28:41
Time 00:49:12 | Step 266393 / 2001000 | TPS 74.3829 | ETA 06:28:39
Time 00:49:22 | Step 267134 / 2001000 | TPS 74.0653 | ETA 06:30:09
Time 00:49:32 | Step 267878 / 2001000 | TPS 74.354 | ETA 06:28:29
Time 00:49:42 | Step 268622 / 2001000 | TPS 74.318 | ETA 06:28:30
Time 00:49:52 | Step 269363 / 2001000 | TPS 74.0256 | ETA 06:29:52
Time 00:50:02 | Step 270107 / 2001000 | TPS 74.3178 | ETA 06:28:10
Time 00:50:12 | Step 270851 / 2001000 | TPS 74.3321 | ETA 06:27:55
Time 00:50:22 | Step 271595 / 2001000 | TPS 74.3094 | ETA 06:27:53
Time 00:50:32 | Step 272336 / 2001000 | TPS 74.0506 | ETA 06:29:04
Time 00:50:42 | Step 273079 / 2001000 | TPS 74.2977 | ETA 06:27:36
Time 00:50:52 | Step 273820 / 2001000 | TPS 74.0467 | ETA 06:28:45
Time 00:51:02 | Step 274564 / 2001000 | TPS 74.3127 | ETA 06:27:12
Time 00:51:12 | Step 275305 / 2001000 | TPS 74.0244 | ETA 06:28:32
Time 00:51:22 | Step 276045 / 2001000 | TPS 73.9756 | ETA 06:28:37
Time 00:51:32 | Step 276788 / 2001000 | TPS 74.2547 | ETA 06:27:00
Time 00:51:42 | Step 277530 / 2001000 | TPS 73.9566 | ETA 06:28:23
Time 00:51:52 | Step 278273 / 2001000 | TPS 74.2153 | ETA 06:26:52
Time 00:52:02 | Step 279016 / 2001000 | TPS 74.2177 | ETA 06:26:41
Time 00:52:12 | Step 279759 / 2001000 | TPS 74.2043 | ETA 06:26:35
Time 00:52:22 | Step 280499 / 2001000 | TPS 73.9005 | ETA 06:28:01
Time 00:52:32 | Step 281241 / 2001000 | TPS 74.1639 | ETA 06:26:28
Time 00:52:42 | Step 281983 / 2001000 | TPS 74.1428 | ETA 06:26:25
Time 00:52:52 | Step 282725 / 2001000 | TPS 74.1136 | ETA 06:26:24
Time 00:53:02 | Step 283467 / 2001000 | TPS 74.1372 | ETA 06:26:06
Time 00:53:12 | Step 284206 / 2001000 | TPS 73.8421 | ETA 06:27:29
Time 00:53:22 | Step 284948 / 2001000 | TPS 74.1225 | ETA 06:25:51
Time 00:53:32 | Step 285687 / 2001000 | TPS 73.8368 | ETA 06:27:11
Time 00:53:42 | Step 286426 / 2001000 | TPS 73.8151 | ETA 06:27:07
Time 00:53:52 | Step 287164 / 2001000 | TPS 73.7877 | ETA 06:27:06
Time 00:54:02 | Step 287902 / 2001000 | TPS 73.7949 | ETA 06:26:54
Time 00:54:12 | Step 288643 / 2001000 | TPS 74.0485 | ETA 06:25:24
Time 00:54:22 | Step 289384 / 2001000 | TPS 74.0553 | ETA 06:25:12
Time 00:54:32 | Step 290122 / 2001000 | TPS 73.7474 | ETA 06:26:39
Time 00:54:42 | Step 290860 / 2001000 | TPS 73.7208 | ETA 06:26:37
Time 00:54:52 | Step 291600 / 2001000 | TPS 73.98 | ETA 06:25:06
Time 00:55:02 | Step 292337 / 2001000 | TPS 73.6359 | ETA 06:26:44
Time 00:55:12 | Step 293077 / 2001000 | TPS 73.943 | ETA 06:24:57
Time 00:55:22 | Step 293814 / 2001000 | TPS 73.6212 | ETA 06:26:28
Time 00:55:32 | Step 294554 / 2001000 | TPS 73.9082 | ETA 06:24:48
Time 00:55:42 | Step 295294 / 2001000 | TPS 73.9062 | ETA 06:24:39
Time 00:55:52 | Step 296030 / 2001000 | TPS 73.5995 | ETA 06:26:05
Time 00:56:02 | Step 296770 / 2001000 | TPS 73.9046 | ETA 06:24:19
Time 00:56:12 | Step 297509 / 2001000 | TPS 73.8836 | ETA 06:24:16
Time 00:56:22 | Step 298246 / 2001000 | TPS 73.6305 | ETA 06:25:25
Time 00:56:32 | Step 298986 / 2001000 | TPS 73.911 | ETA 06:23:47
Time 00:56:42 | Step 299722 / 2001000 | TPS 73.58 | ETA 06:25:21
Time 00:56:52 | Step 300458 / 2001000 | TPS 73.581 | ETA 06:25:11
Time 00:57:02 | Step 301197 / 2001000 | TPS 73.8683 | ETA 06:23:31
Time 00:57:12 | Step 301909 / 2001000 | TPS 71.1855 | ETA 06:37:48
Time 00:57:22 | Step 302786 / 2001000 | TPS 87.6501 | ETA 05:22:54
Time 00:57:32 | Step 303666 / 2001000 | TPS 87.9598 | ETA 05:21:36
Time 00:57:42 | Step 304543 / 2001000 | TPS 87.6363 | ETA 05:22:37
Time 00:57:52 | Step 305420 / 2001000 | TPS 87.6461 | ETA 05:22:25
Time 00:58:02 | Step 306300 / 2001000 | TPS 87.9764 | ETA 05:21:03
Time 00:58:12 | Step 307177 / 2001000 | TPS 87.6215 | ETA 05:22:11
Time 00:58:22 | Step 308057 / 2001000 | TPS 87.9497 | ETA 05:20:48
Time 00:58:32 | Step 308934 / 2001000 | TPS 87.6036 | ETA 05:21:55
Time 00:58:42 | Step 309810 / 2001000 | TPS 87.5882 | ETA 05:21:48
Time 00:58:52 | Step 310690 / 2001000 | TPS 87.9345 | ETA 05:20:22
Time 00:59:02 | Step 311566 / 2001000 | TPS 87.5737 | ETA 05:21:31
Time 00:59:12 | Step 312442 / 2001000 | TPS 87.5521 | ETA 05:21:26
Time 00:59:22 | Step 313321 / 2001000 | TPS 87.87 | ETA 05:20:06
Time 00:59:32 | Step 314197 / 2001000 | TPS 87.5162 | ETA 05:21:14
Time 00:59:42 | Step 315073 / 2001000 | TPS 87.5153 | ETA 05:21:04
Time 00:59:52 | Step 315949 / 2001000 | TPS 87.5034 | ETA 05:20:56
Time 01:00:02 | Step 316827 / 2001000 | TPS 87.789 | ETA 05:19:44
Time 01:00:12 | Step 317702 / 2001000 | TPS 87.468 | ETA 05:20:44
Time 01:00:22 | Step 318577 / 2001000 | TPS 87.4497 | ETA 05:20:38
Time 01:00:32 | Step 319455 / 2001000 | TPS 87.7662 | ETA 05:19:19
Time 01:00:42 | Step 320330 / 2001000 | TPS 87.4096 | ETA 05:20:27
Time 01:00:53 | Step 321204 / 2001000 | TPS 87.3478 | ETA 05:20:31
Time 01:01:03 | Step 322078 / 2001000 | TPS 87.3563 | ETA 05:20:19
Time 01:01:13 | Step 322951 / 2001000 | TPS 87.2728 | ETA 05:20:27
Time 01:01:23 | Step 323824 / 2001000 | TPS 87.295 | ETA 05:20:12
Time 01:01:33 | Step 324697 / 2001000 | TPS 87.2324 | ETA 05:20:16
Time 01:01:43 | Step 325569 / 2001000 | TPS 87.161 | ETA 05:20:22
Time 01:01:53 | Step 326446 / 2001000 | TPS 87.661 | ETA 05:18:22
Time 01:02:03 | Step 327320 / 2001000 | TPS 87.3354 | ETA 05:19:23
Time 01:02:13 | Step 328194 / 2001000 | TPS 87.3388 | ETA 05:19:13
Time 01:02:23 | Step 329068 / 2001000 | TPS 87.3545 | ETA 05:18:59
Time 01:02:33 | Step 329942 / 2001000 | TPS 87.3489 | ETA 05:18:50
Time 01:02:43 | Step 330820 / 2001000 | TPS 87.7106 | ETA 05:17:21
Time 01:02:53 | Step 331691 / 2001000 | TPS 87.0238 | ETA 05:19:42
Time 01:03:03 | Step 332565 / 2001000 | TPS 87.3733 | ETA 05:18:15
Time 01:03:13 | Step 333443 / 2001000 | TPS 87.732 | ETA 05:16:47
Time 01:03:23 | Step 334317 / 2001000 | TPS 87.3745 | ETA 05:17:55
Time 01:03:33 | Step 335191 / 2001000 | TPS 87.3646 | ETA 05:17:47
Time 01:03:43 | Step 336065 / 2001000 | TPS 87.3567 | ETA 05:17:39
Time 01:03:53 | Step 336939 / 2001000 | TPS 87.3558 | ETA 05:17:29
Time 01:04:03 | Step 337813 / 2001000 | TPS 87.31 | ETA 05:17:29
Time 01:04:13 | Step 338686 / 2001000 | TPS 87.297 | ETA 05:17:22
Time 01:04:23 | Step 339559 / 2001000 | TPS 87.2849 | ETA 05:17:14
Time 01:04:33 | Step 340432 / 2001000 | TPS 87.2863 | ETA 05:17:04
Time 01:04:43 | Step 341308 / 2001000 | TPS 87.5541 | ETA 05:15:56
Time 01:04:53 | Step 342177 / 2001000 | TPS 86.89 | ETA 05:18:11
Time 01:05:03 | Step 343052 / 2001000 | TPS 87.5 | ETA 05:15:47
Time 01:05:13 | Step 343925 / 2001000 | TPS 87.236 | ETA 05:16:35
Time 01:05:23 | Step 344801 / 2001000 | TPS 87.558 | ETA 05:15:15
Time 01:05:33 | Step 345672 / 2001000 | TPS 87.0099 | ETA 05:17:04
Time 01:05:43 | Step 346537 / 2001000 | TPS 86.4541 | ETA 05:18:56
Time 01:05:53 | Step 347402 / 2001000 | TPS 86.4794 | ETA 05:18:41
Time 01:06:03 | Step 348272 / 2001000 | TPS 86.9621 | ETA 05:16:45
Time 01:06:13 | Step 349141 / 2001000 | TPS 86.855 | ETA 05:16:58
Time 01:06:23 | Step 350008 / 2001000 | TPS 86.6904 | ETA 05:17:24
Time 01:06:33 | Step 350880 / 2001000 | TPS 87.131 | ETA 05:15:38
Time 01:06:43 | Step 351749 / 2001000 | TPS 86.8293 | ETA 05:16:34
Time 01:06:53 | Step 352622 / 2001000 | TPS 87.2293 | ETA 05:14:57
Time 01:07:03 | Step 353495 / 2001000 | TPS 87.2515 | ETA 05:14:42
Time 01:07:13 | Step 354368 / 2001000 | TPS 87.252 | ETA 05:14:32
Time 01:07:23 | Step 355241 / 2001000 | TPS 87.263 | ETA 05:14:19
Time 01:07:33 | Step 356118 / 2001000 | TPS 87.6152 | ETA 05:12:53
Time 01:07:43 | Step 356991 / 2001000 | TPS 87.2728 | ETA 05:13:57
Time 01:07:53 | Step 357861 / 2001000 | TPS 86.9097 | ETA 05:15:06
Time 01:08:03 | Step 358734 / 2001000 | TPS 87.2635 | ETA 05:13:39
Time 01:08:13 | Step 359607 / 2001000 | TPS 87.2666 | ETA 05:13:28
Time 01:08:23 | Step 360480 / 2001000 | TPS 87.2682 | ETA 05:13:18
Time 01:08:33 | Step 361356 / 2001000 | TPS 87.2329 | ETA 05:13:16
Time 01:08:43 | Step 362229 / 2001000 | TPS 87.2386 | ETA 05:13:04
Time 01:08:53 | Step 363102 / 2001000 | TPS 87.2212 | ETA 05:12:58
Time 01:09:03 | Step 363975 / 2001000 | TPS 87.2268 | ETA 05:12:47
Time 01:09:13 | Step 364847 / 2001000 | TPS 87.1837 | ETA 05:12:46
Time 01:09:23 | Step 365720 / 2001000 | TPS 87.2183 | ETA 05:12:29
Time 01:09:33 | Step 366589 / 2001000 | TPS 86.8389 | ETA 05:13:41
Time 01:09:43 | Step 367461 / 2001000 | TPS 87.1884 | ETA 05:12:15
Time 01:09:53 | Step 368330 / 2001000 | TPS 86.8215 | ETA 05:13:24
Time 01:10:03 | Step 369202 / 2001000 | TPS 87.1593 | ETA 05:12:02
Time 01:10:13 | Step 370074 / 2001000 | TPS 87.1501 | ETA 05:11:53
Time 01:10:23 | Step 370942 / 2001000 | TPS 86.7913 | ETA 05:13:01
Time 01:10:33 | Step 371814 / 2001000 | TPS 87.1031 | ETA 05:11:44
Time 01:10:43 | Step 372682 / 2001000 | TPS 86.7424 | ETA 05:12:51
Time 01:10:53 | Step 373553 / 2001000 | TPS 87.0713 | ETA 05:11:30
Time 01:11:03 | Step 374424 / 2001000 | TPS 87.0672 | ETA 05:11:21
Time 01:11:13 | Step 375295 / 2001000 | TPS 87.0295 | ETA 05:11:19
Time 01:11:23 | Step 376162 / 2001000 | TPS 86.6417 | ETA 05:12:33
Time 01:11:33 | Step 377035 / 2001000 | TPS 87.2682 | ETA 05:10:08
Time 01:11:43 | Step 377899 / 2001000 | TPS 86.3835 | ETA 05:13:09
Time 01:11:53 | Step 378767 / 2001000 | TPS 86.7297 | ETA 05:11:44
Time 01:12:03 | Step 379634 / 2001000 | TPS 86.6952 | ETA 05:11:41
Time 01:12:13 | Step 380501 / 2001000 | TPS 86.6998 | ETA 05:11:30
Time 01:12:23 | Step 381368 / 2001000 | TPS 86.6517 | ETA 05:11:31
Time 01:12:33 | Step 382236 / 2001000 | TPS 86.7825 | ETA 05:10:53
Time 01:12:43 | Step 383101 / 2001000 | TPS 86.4742 | ETA 05:11:49
Time 01:12:53 | Step 383972 / 2001000 | TPS 87.0046 | ETA 05:09:45
Time 01:13:03 | Step 384843 / 2001000 | TPS 87.0065 | ETA 05:09:35
Time 01:13:13 | Step 385710 / 2001000 | TPS 86.684 | ETA 05:10:34
Time 01:13:23 | Step 386581 / 2001000 | TPS 87.0249 | ETA 05:09:11
Time 01:13:33 | Step 387452 / 2001000 | TPS 87.0546 | ETA 05:08:54
Time 01:13:43 | Step 388320 / 2001000 | TPS 86.711 | ETA 05:09:58
Time 01:13:53 | Step 389191 / 2001000 | TPS 87.0495 | ETA 05:08:36
Time 01:14:03 | Step 390062 / 2001000 | TPS 86.7149 | ETA 05:09:37
Time 01:14:13 | Step 390933 / 2001000 | TPS 87.0526 | ETA 05:08:15
Time 01:14:23 | Step 391804 / 2001000 | TPS 87.0995 | ETA 05:07:55
Time 01:14:33 | Step 392672 / 2001000 | TPS 86.7415 | ETA 05:09:01
Time 01:14:43 | Step 393543 / 2001000 | TPS 87.099 | ETA 05:07:35
Time 01:14:53 | Step 394414 / 2001000 | TPS 87.0994 | ETA 05:07:25
Time 01:15:03 | Step 395282 / 2001000 | TPS 86.7349 | ETA 05:08:32
Time 01:15:13 | Step 396150 / 2001000 | TPS 86.7121 | ETA 05:08:27
Time 01:15:23 | Step 397021 / 2001000 | TPS 87.0569 | ETA 05:07:04
Time 01:15:33 | Step 397892 / 2001000 | TPS 87.0857 | ETA 05:06:48
Time 01:15:43 | Step 398759 / 2001000 | TPS 86.6943 | ETA 05:08:01
Time 01:15:53 | Step 399630 / 2001000 | TPS 87.0448 | ETA 05:06:37
Time 01:16:03 | Step 400497 / 2001000 | TPS 86.6948 | ETA 05:07:41
Time 01:16:13 | Step 401368 / 2001000 | TPS 87.0175 | ETA 05:06:22
Time 01:16:23 | Step 402099 / 2001000 | TPS 73.0614 | ETA 06:04:44
Time 01:16:33 | Step 402974 / 2001000 | TPS 87.4241 | ETA 05:04:39
Time 01:16:43 | Step 403848 / 2001000 | TPS 87.3318 | ETA 05:04:48
Time 01:16:53 | Step 404720 / 2001000 | TPS 87.0009 | ETA 05:05:47
Time 01:17:03 | Step 405594 / 2001000 | TPS 87.3642 | ETA 05:04:21
Time 01:17:13 | Step 406468 / 2001000 | TPS 87.3562 | ETA 05:04:13
Time 01:17:23 | Step 407338 / 2001000 | TPS 86.9455 | ETA 05:05:29
Time 01:17:33 | Step 408208 / 2001000 | TPS 86.6853 | ETA 05:06:14
Time 01:17:43 | Step 409080 / 2001000 | TPS 87.1926 | ETA 05:04:17
Time 01:17:53 | Step 409948 / 2001000 | TPS 86.7379 | ETA 05:05:43
Time 01:18:03 | Step 410817 / 2001000 | TPS 86.8793 | ETA 05:05:03
Time 01:18:13 | Step 411681 / 2001000 | TPS 86.3045 | ETA 05:06:55
Time 01:18:23 | Step 412547 / 2001000 | TPS 86.5663 | ETA 05:05:49
Time 01:18:33 | Step 413418 / 2001000 | TPS 87.0904 | ETA 05:03:49
Time 01:18:43 | Step 414288 / 2001000 | TPS 86.9757 | ETA 05:04:03
Time 01:18:53 | Step 415162 / 2001000 | TPS 87.3196 | ETA 05:02:41
Time 01:19:03 | Step 416033 / 2001000 | TPS 87.0257 | ETA 05:03:32
Time 01:19:13 | Step 416908 / 2001000 | TPS 87.4091 | ETA 05:02:02
Time 01:19:23 | Step 417783 / 2001000 | TPS 87.412 | ETA 05:01:52
Time 01:19:33 | Step 418654 / 2001000 | TPS 87.0686 | ETA 05:02:53
Time 01:19:43 | Step 419525 / 2001000 | TPS 87.0701 | ETA 05:02:43
Time 01:19:53 | Step 420396 / 2001000 | TPS 87.0796 | ETA 05:02:31
Time 01:20:03 | Step 421271 / 2001000 | TPS 87.437 | ETA 05:01:07
Time 01:20:13 | Step 422142 / 2001000 | TPS 87.0809 | ETA 05:02:10
Time 01:20:23 | Step 423013 / 2001000 | TPS 87.0867 | ETA 05:01:59
Time 01:20:33 | Step 423884 / 2001000 | TPS 87.0928 | ETA 05:01:48
Time 01:20:43 | Step 424759 / 2001000 | TPS 87.0942 | ETA 05:01:38
Time 01:20:53 | Step 425634 / 2001000 | TPS 87.4422 | ETA 05:00:16
Time 01:21:03 | Step 426505 / 2001000 | TPS 87.0893 | ETA 05:01:19
Time 01:21:13 | Step 427377 / 2001000 | TPS 87.1054 | ETA 05:01:05
Time 01:21:23 | Step 428248 / 2001000 | TPS 87.0584 | ETA 05:01:05
Time 01:21:33 | Step 429118 / 2001000 | TPS 86.9923 | ETA 05:01:09
Time 01:21:43 | Step 429989 / 2001000 | TPS 87.0271 | ETA 05:00:51
Time 01:21:53 | Step 430863 / 2001000 | TPS 87.3653 | ETA 04:59:32
Time 01:22:03 | Step 431734 / 2001000 | TPS 87.0169 | ETA 05:00:34
Time 01:22:13 | Step 432604 / 2001000 | TPS 86.9572 | ETA 05:00:36
Time 01:22:23 | Step 433478 / 2001000 | TPS 87.363 | ETA 04:59:02
Time 01:22:33 | Step 434349 / 2001000 | TPS 87.0181 | ETA 05:00:03
Time 01:22:43 | Step 435222 / 2001000 | TPS 87.0236 | ETA 04:59:52
Time 01:22:53 | Step 436096 / 2001000 | TPS 87.3554 | ETA 04:58:34
Time 01:23:03 | Step 436966 / 2001000 | TPS 86.977 | ETA 04:59:42
Time 01:23:13 | Step 437836 / 2001000 | TPS 86.9668 | ETA 04:59:34
Time 01:23:23 | Step 438706 / 2001000 | TPS 86.9541 | ETA 04:59:26
Time 01:23:33 | Step 439575 / 2001000 | TPS 86.8665 | ETA 04:59:34
Time 01:23:43 | Step 440449 / 2001000 | TPS 87.321 | ETA 04:57:51
Time 01:23:53 | Step 441319 / 2001000 | TPS 86.9333 | ETA 04:59:01
Time 01:24:03 | Step 442189 / 2001000 | TPS 86.9259 | ETA 04:58:52
Time 01:24:13 | Step 443059 / 2001000 | TPS 86.9222 | ETA 04:58:43
Time 01:24:23 | Step 443929 / 2001000 | TPS 86.9267 | ETA 04:58:32
Time 01:24:33 | Step 444799 / 2001000 | TPS 86.9048 | ETA 04:58:26
Time 01:24:43 | Step 445672 / 2001000 | TPS 87.2493 | ETA 04:57:06
Time 01:24:53 | Step 446541 / 2001000 | TPS 86.8591 | ETA 04:58:16
Time 01:25:03 | Step 447410 / 2001000 | TPS 86.862 | ETA 04:58:05
Time 01:25:13 | Step 448279 / 2001000 | TPS 86.8485 | ETA 04:57:58
Time 01:25:23 | Step 449148 / 2001000 | TPS 86.8488 | ETA 04:57:48
Time 01:25:33 | Step 450021 / 2001000 | TPS 87.2056 | ETA 04:56:25
Time 01:25:44 | Step 450890 / 2001000 | TPS 86.8776 | ETA 04:57:22
Time 01:25:54 | Step 451759 / 2001000 | TPS 86.8771 | ETA 04:57:12
Time 01:26:04 | Step 452628 / 2001000 | TPS 86.8889 | ETA 04:57:00
Time 01:26:14 | Step 453498 / 2001000 | TPS 86.9198 | ETA 04:56:43
Time 01:26:24 | Step 454368 / 2001000 | TPS 86.913 | ETA 04:56:35
Time 01:26:34 | Step 455238 / 2001000 | TPS 86.9114 | ETA 04:56:25
Time 01:26:44 | Step 456108 / 2001000 | TPS 86.9116 | ETA 04:56:15
Time 01:26:54 | Step 456978 / 2001000 | TPS 86.9289 | ETA 04:56:01
Time 01:27:04 | Step 457848 / 2001000 | TPS 86.921 | ETA 04:55:53
Time 01:27:14 | Step 458718 / 2001000 | TPS 86.9046 | ETA 04:55:46
Time 01:27:24 | Step 459588 / 2001000 | TPS 86.9037 | ETA 04:55:37
Time 01:27:34 | Step 460458 / 2001000 | TPS 86.9122 | ETA 04:55:25
Time 01:27:44 | Step 461331 / 2001000 | TPS 87.2554 | ETA 04:54:05
Time 01:27:54 | Step 462197 / 2001000 | TPS 86.5357 | ETA 04:56:22
Time 01:28:04 | Step 463066 / 2001000 | TPS 86.8823 | ETA 04:55:01
Time 01:28:14 | Step 463935 / 2001000 | TPS 86.895 | ETA 04:54:48
Time 01:28:24 | Step 464804 / 2001000 | TPS 86.873 | ETA 04:54:43
Time 01:28:34 | Step 465673 / 2001000 | TPS 86.8541 | ETA 04:54:37
Time 01:28:44 | Step 466542 / 2001000 | TPS 86.5092 | ETA 04:55:37
Time 01:28:54 | Step 467411 / 2001000 | TPS 86.8529 | ETA 04:54:17
Time 01:29:04 | Step 468280 / 2001000 | TPS 86.832 | ETA 04:54:11
Time 01:29:14 | Step 469149 / 2001000 | TPS 86.8261 | ETA 04:54:02
Time 01:29:24 | Step 470018 / 2001000 | TPS 86.8265 | ETA 04:53:52
Time 01:29:34 | Step 470887 / 2001000 | TPS 86.8387 | ETA 04:53:40
Time 01:29:44 | Step 471756 / 2001000 | TPS 86.4864 | ETA 04:54:41
Time 01:29:54 | Step 472625 / 2001000 | TPS 86.8244 | ETA 04:53:23
Time 01:30:04 | Step 473494 / 2001000 | TPS 86.8428 | ETA 04:53:09
Time 01:30:14 | Step 474363 / 2001000 | TPS 86.8265 | ETA 04:53:02
Time 01:30:24 | Step 475232 / 2001000 | TPS 86.8166 | ETA 04:52:54
Time 01:30:34 | Step 476101 / 2001000 | TPS 86.8311 | ETA 04:52:41
Time 01:30:44 | Step 476970 / 2001000 | TPS 86.8353 | ETA 04:52:30
Time 01:30:54 | Step 477835 / 2001000 | TPS 86.4448 | ETA 04:53:40
Time 01:31:04 | Step 478703 / 2001000 | TPS 86.7921 | ETA 04:52:19
Time 01:31:14 | Step 479572 / 2001000 | TPS 86.8092 | ETA 04:52:06
Time 01:31:24 | Step 480440 / 2001000 | TPS 86.7992 | ETA 04:51:58
Time 01:31:34 | Step 481308 / 2001000 | TPS 86.7802 | ETA 04:51:51
Time 01:31:44 | Step 482176 / 2001000 | TPS 86.7836 | ETA 04:51:41
Time 01:31:54 | Step 483041 / 2001000 | TPS 86.4255 | ETA 04:52:43
Time 01:32:04 | Step 483909 / 2001000 | TPS 86.7929 | ETA 04:51:19
Time 01:32:14 | Step 484777 / 2001000 | TPS 86.7688 | ETA 04:51:14
Time 01:32:24 | Step 485645 / 2001000 | TPS 86.7536 | ETA 04:51:07
Time 01:32:34 | Step 486509 / 2001000 | TPS 86.3953 | ETA 04:52:09
Time 01:32:44 | Step 487377 / 2001000 | TPS 86.7438 | ETA 04:50:49
Time 01:32:54 | Step 488245 / 2001000 | TPS 86.7342 | ETA 04:50:41
Time 01:33:04 | Step 489109 / 2001000 | TPS 86.3682 | ETA 04:51:45
Time 01:33:14 | Step 489977 / 2001000 | TPS 86.7569 | ETA 04:50:16
Time 01:33:24 | Step 490845 / 2001000 | TPS 86.7511 | ETA 04:50:07
Time 01:33:34 | Step 491713 / 2001000 | TPS 86.7187 | ETA 04:50:04
Time 01:33:44 | Step 492581 / 2001000 | TPS 86.7103 | ETA 04:49:56
Time 01:33:54 | Step 493445 / 2001000 | TPS 86.361 | ETA 04:50:56
Time 01:34:04 | Step 494312 / 2001000 | TPS 86.6993 | ETA 04:49:38
Time 01:34:14 | Step 495180 / 2001000 | TPS 86.704 | ETA 04:49:27
Time 01:34:24 | Step 496044 / 2001000 | TPS 86.3557 | ETA 04:50:27
Time 01:34:34 | Step 496912 / 2001000 | TPS 86.7358 | ETA 04:49:01
Time 01:34:44 | Step 497780 / 2001000 | TPS 86.7079 | ETA 04:48:56
Time 01:34:54 | Step 498648 / 2001000 | TPS 86.7073 | ETA 04:48:46
Time 01:35:04 | Step 499512 / 2001000 | TPS 86.3355 | ETA 04:49:51
Time 01:35:14 | Step 500376 / 2001000 | TPS 86.3322 | ETA 04:49:41
Time 01:35:24 | Step 501243 / 2001000 | TPS 86.69 | ETA 04:48:20
Time 01:35:34 | Step 501964 / 2001000 | TPS 72.0588 | ETA 05:46:42
Time 01:35:44 | Step 502831 / 2001000 | TPS 86.6813 | ETA 04:48:03
Time 01:35:54 | Step 503695 / 2001000 | TPS 86.3083 | ETA 04:49:08
Time 01:36:04 | Step 504558 / 2001000 | TPS 86.2842 | ETA 04:49:03
Time 01:36:14 | Step 505425 / 2001000 | TPS 86.6534 | ETA 04:47:39
Time 01:36:24 | Step 506292 / 2001000 | TPS 86.644 | ETA 04:47:31
Time 01:36:34 | Step 507155 / 2001000 | TPS 86.2772 | ETA 04:48:34
Time 01:36:44 | Step 508022 / 2001000 | TPS 86.6193 | ETA 04:47:16
Time 01:36:54 | Step 508886 / 2001000 | TPS 86.3062 | ETA 04:48:08
Time 01:37:04 | Step 509753 / 2001000 | TPS 86.6464 | ETA 04:46:50
Time 01:37:14 | Step 510616 / 2001000 | TPS 86.2934 | ETA 04:47:51
Time 01:37:24 | Step 511483 / 2001000 | TPS 86.6646 | ETA 04:46:27
Time 01:37:34 | Step 512346 / 2001000 | TPS 86.2899 | ETA 04:47:31
Time 01:37:44 | Step 513213 / 2001000 | TPS 86.6527 | ETA 04:46:09
Time 01:37:54 | Step 514076 / 2001000 | TPS 86.2861 | ETA 04:47:12
Time 01:38:04 | Step 514943 / 2001000 | TPS 86.6693 | ETA 04:45:46
Time 01:38:14 | Step 515806 / 2001000 | TPS 86.2807 | ETA 04:46:53
Time 01:38:24 | Step 516673 / 2001000 | TPS 86.6419 | ETA 04:45:31
Time 01:38:34 | Step 517536 / 2001000 | TPS 86.2642 | ETA 04:46:36
Time 01:38:44 | Step 518399 / 2001000 | TPS 86.2513 | ETA 04:46:29
Time 01:38:54 | Step 519266 / 2001000 | TPS 86.6307 | ETA 04:45:04
Time 01:39:04 | Step 520129 / 2001000 | TPS 86.2509 | ETA 04:46:09
Time 01:39:14 | Step 520996 / 2001000 | TPS 86.6183 | ETA 04:44:46
Time 01:39:24 | Step 521859 / 2001000 | TPS 86.23 | ETA 04:45:53
Time 01:39:34 | Step 522725 / 2001000 | TPS 86.5811 | ETA 04:44:33
Time 01:39:44 | Step 523591 / 2001000 | TPS 86.5853 | ETA 04:44:23
Time 01:39:54 | Step 524454 / 2001000 | TPS 86.2341 | ETA 04:45:22
Time 01:40:04 | Step 525317 / 2001000 | TPS 86.2323 | ETA 04:45:12
Time 01:40:14 | Step 526183 / 2001000 | TPS 86.577 | ETA 04:43:54
Time 01:40:24 | Step 527046 / 2001000 | TPS 86.2267 | ETA 04:44:53
Time 01:40:34 | Step 527909 / 2001000 | TPS 86.2304 | ETA 04:44:43
Time 01:40:44 | Step 528775 / 2001000 | TPS 86.5933 | ETA 04:43:21
Time 01:40:54 | Step 529638 / 2001000 | TPS 86.239 | ETA 04:44:21
Time 01:41:04 | Step 530501 / 2001000 | TPS 86.2265 | ETA 04:44:13
Time 01:41:14 | Step 531367 / 2001000 | TPS 86.5931 | ETA 04:42:51
Time 01:41:24 | Step 532230 / 2001000 | TPS 86.2083 | ETA 04:43:57
Time 01:41:34 | Step 533096 / 2001000 | TPS 86.5601 | ETA 04:42:38
Time 01:41:44 | Step 533959 / 2001000 | TPS 86.2343 | ETA 04:43:32
Time 01:41:54 | Step 534822 / 2001000 | TPS 86.2189 | ETA 04:43:25
Time 01:42:04 | Step 535685 / 2001000 | TPS 86.2143 | ETA 04:43:16
Time 01:42:14 | Step 536547 / 2001000 | TPS 86.191 | ETA 04:43:10
Time 01:42:24 | Step 537413 / 2001000 | TPS 86.5646 | ETA 04:41:47
Time 01:42:34 | Step 538275 / 2001000 | TPS 86.1775 | ETA 04:42:53
Time 01:42:44 | Step 539137 / 2001000 | TPS 86.1676 | ETA 04:42:45
Time 01:42:54 | Step 540003 / 2001000 | TPS 86.5307 | ETA 04:41:24
Time 01:43:04 | Step 540865 / 2001000 | TPS 86.1734 | ETA 04:42:24
Time 01:43:14 | Step 541727 / 2001000 | TPS 86.1606 | ETA 04:42:16
Time 01:43:24 | Step 542589 / 2001000 | TPS 86.1504 | ETA 04:42:08
Time 01:43:34 | Step 543455 / 2001000 | TPS 86.5305 | ETA 04:40:44
Time 01:43:44 | Step 544317 / 2001000 | TPS 86.1457 | ETA 04:41:49
Time 01:43:54 | Step 545179 / 2001000 | TPS 86.1451 | ETA 04:41:39
Time 01:44:04 | Step 546041 / 2001000 | TPS 86.1618 | ETA 04:41:26
Time 01:44:14 | Step 546903 / 2001000 | TPS 86.1839 | ETA 04:41:12
Time 01:44:24 | Step 547765 / 2001000 | TPS 86.1751 | ETA 04:41:03
Time 01:44:34 | Step 548627 / 2001000 | TPS 86.1711 | ETA 04:40:54
Time 01:44:44 | Step 549491 / 2001000 | TPS 86.1846 | ETA 04:40:41
Time 01:44:54 | Step 550353 / 2001000 | TPS 86.1573 | ETA 04:40:37
Time 01:45:04 | Step 551219 / 2001000 | TPS 86.5195 | ETA 04:39:16
Time 01:45:14 | Step 552081 / 2001000 | TPS 86.1533 | ETA 04:40:17
Time 01:45:24 | Step 552943 / 2001000 | TPS 86.1631 | ETA 04:40:06
Time 01:45:34 | Step 553805 / 2001000 | TPS 86.1418 | ETA 04:40:00
Time 01:45:44 | Step 554670 / 2001000 | TPS 86.491 | ETA 04:38:42
Time 01:45:54 | Step 555532 / 2001000 | TPS 86.1203 | ETA 04:39:44
Time 01:46:04 | Step 556394 / 2001000 | TPS 86.1073 | ETA 04:39:36
Time 01:46:14 | Step 557255 / 2001000 | TPS 86.0812 | ETA 04:39:31
Time 01:46:24 | Step 558116 / 2001000 | TPS 86.0796 | ETA 04:39:22
Time 01:46:34 | Step 558977 / 2001000 | TPS 86.0936 | ETA 04:39:09
Time 01:46:44 | Step 559838 / 2001000 | TPS 86.0929 | ETA 04:38:59
Time 01:46:54 | Step 560700 / 2001000 | TPS 86.1104 | ETA 04:38:46
Time 01:47:04 | Step 561560 / 2001000 | TPS 85.9402 | ETA 04:39:09
Time 01:47:14 | Step 562422 / 2001000 | TPS 86.1886 | ETA 04:38:11
Time 01:47:24 | Step 563288 / 2001000 | TPS 86.5285 | ETA 04:36:55
Time 01:47:34 | Step 564150 / 2001000 | TPS 86.1772 | ETA 04:37:53
Time 01:47:44 | Step 565012 / 2001000 | TPS 86.1811 | ETA 04:37:42
Time 01:47:54 | Step 565871 / 2001000 | TPS 85.8267 | ETA 04:38:41
Time 01:48:04 | Step 566737 / 2001000 | TPS 86.5513 | ETA 04:36:11
Time 01:48:14 | Step 567599 / 2001000 | TPS 86.1896 | ETA 04:37:10
Time 01:48:24 | Step 568461 / 2001000 | TPS 86.1906 | ETA 04:37:00
Time 01:48:34 | Step 569323 / 2001000 | TPS 86.1509 | ETA 04:36:58
Time 01:48:44 | Step 570185 / 2001000 | TPS 86.1384 | ETA 04:36:50
Time 01:48:54 | Step 571047 / 2001000 | TPS 86.1364 | ETA 04:36:41
Time 01:49:04 | Step 571913 / 2001000 | TPS 86.5197 | ETA 04:35:17
Time 01:49:14 | Step 572775 / 2001000 | TPS 86.134 | ETA 04:36:21
Time 01:49:24 | Step 573633 / 2001000 | TPS 85.7682 | ETA 04:37:22
Time 01:49:34 | Step 574495 / 2001000 | TPS 86.134 | ETA 04:36:01
Time 01:49:44 | Step 575357 / 2001000 | TPS 86.1126 | ETA 04:35:55
Time 01:49:54 | Step 576219 / 2001000 | TPS 86.113 | ETA 04:35:45
Time 01:50:04 | Step 577080 / 2001000 | TPS 86.0939 | ETA 04:35:39
Time 01:50:14 | Step 577939 / 2001000 | TPS 85.8148 | ETA 04:36:22
Time 01:50:24 | Step 578800 / 2001000 | TPS 86.0528 | ETA 04:35:27
Time 01:50:34 | Step 579661 / 2001000 | TPS 86.055 | ETA 04:35:16
Time 01:50:44 | Step 580522 / 2001000 | TPS 86.0554 | ETA 04:35:06
Time 01:50:54 | Step 581383 / 2001000 | TPS 86.0757 | ETA 04:34:52
Time 01:51:04 | Step 582244 / 2001000 | TPS 86.0543 | ETA 04:34:46
Time 01:51:14 | Step 583105 / 2001000 | TPS 86.053 | ETA 04:34:36
Time 01:51:24 | Step 583966 / 2001000 | TPS 86.0717 | ETA 04:34:23
Time 01:51:34 | Step 584827 / 2001000 | TPS 86.0564 | ETA 04:34:16
Time 01:51:44 | Step 585688 / 2001000 | TPS 86.0553 | ETA 04:34:06
Time 01:51:55 | Step 586549 / 2001000 | TPS 86.0524 | ETA 04:33:57
Time 01:52:05 | Step 587407 / 2001000 | TPS 85.7124 | ETA 04:34:52
Time 01:52:15 | Step 588268 / 2001000 | TPS 86.0541 | ETA 04:33:36
Time 01:52:25 | Step 589129 / 2001000 | TPS 86.0432 | ETA 04:33:28
Time 01:52:35 | Step 589990 / 2001000 | TPS 86.0495 | ETA 04:33:17
Time 01:52:45 | Step 590851 / 2001000 | TPS 86.0229 | ETA 04:33:12
Time 01:52:55 | Step 591708 / 2001000 | TPS 85.6337 | ETA 04:34:17
Time 01:53:05 | Step 592568 / 2001000 | TPS 85.9958 | ETA 04:32:57
Time 01:53:15 | Step 593429 / 2001000 | TPS 86.0049 | ETA 04:32:46
Time 01:53:25 | Step 594289 / 2001000 | TPS 85.9839 | ETA 04:32:40
Time 01:53:35 | Step 595149 / 2001000 | TPS 85.9535 | ETA 04:32:35
Time 01:53:45 | Step 596009 / 2001000 | TPS 85.9765 | ETA 04:32:21
Time 01:53:55 | Step 596869 / 2001000 | TPS 85.997 | ETA 04:32:07
Time 01:54:05 | Step 597729 / 2001000 | TPS 85.9939 | ETA 04:31:58
Time 01:54:15 | Step 598590 / 2001000 | TPS 86.0118 | ETA 04:31:44
Time 01:54:25 | Step 599451 / 2001000 | TPS 85.6723 | ETA 04:32:39
Time 01:54:35 | Step 600311 / 2001000 | TPS 85.997 | ETA 04:31:27
Time 01:54:45 | Step 601172 / 2001000 | TPS 86.0169 | ETA 04:31:13
Time 01:54:55 | Step 601986 / 2001000 | TPS 81.309 | ETA 04:46:46
Time 01:55:05 | Step 602749 / 2001000 | TPS 76.2267 | ETA 05:05:43
Time 01:55:15 | Step 603606 / 2001000 | TPS 85.654 | ETA 04:31:54
Time 01:55:25 | Step 604467 / 2001000 | TPS 86.0069 | ETA 04:30:37
Time 01:55:35 | Step 605327 / 2001000 | TPS 85.9991 | ETA 04:30:28
Time 01:55:45 | Step 606186 / 2001000 | TPS 85.6461 | ETA 04:31:25
Time 01:55:55 | Step 607046 / 2001000 | TPS 85.9848 | ETA 04:30:11
Time 01:56:05 | Step 607906 / 2001000 | TPS 85.9905 | ETA 04:30:00
Time 01:56:15 | Step 608766 / 2001000 | TPS 85.9627 | ETA 04:29:55
Time 01:56:25 | Step 609624 / 2001000 | TPS 85.5941 | ETA 04:30:55
Time 01:56:35 | Step 610484 / 2001000 | TPS 85.9658 | ETA 04:29:35
Time 01:56:45 | Step 611344 / 2001000 | TPS 85.944 | ETA 04:29:29
Time 01:56:55 | Step 612200 / 2001000 | TPS 85.5748 | ETA 04:30:29
Time 01:57:05 | Step 613058 / 2001000 | TPS 85.5896 | ETA 04:30:16
Time 01:57:15 | Step 613918 / 2001000 | TPS 85.9582 | ETA 04:28:56
Time 01:57:25 | Step 614775 / 2001000 | TPS 85.6118 | ETA 04:29:51
Time 01:57:35 | Step 615635 / 2001000 | TPS 85.6286 | ETA 04:29:38
Time 01:57:45 | Step 616496 / 2001000 | TPS 86.0212 | ETA 04:28:14
Time 01:57:55 | Step 617353 / 2001000 | TPS 85.6065 | ETA 04:29:22
Time 01:58:05 | Step 618213 / 2001000 | TPS 85.9682 | ETA 04:28:04
Time 01:58:15 | Step 619073 / 2001000 | TPS 85.9764 | ETA 04:27:53
Time 01:58:25 | Step 619930 / 2001000 | TPS 85.6232 | ETA 04:28:49
Time 01:58:35 | Step 620790 / 2001000 | TPS 85.9782 | ETA 04:27:33
Time 01:58:45 | Step 621647 / 2001000 | TPS 85.6009 | ETA 04:28:33
Time 01:58:55 | Step 622507 / 2001000 | TPS 85.9756 | ETA 04:27:13
Time 01:59:05 | Step 623367 / 2001000 | TPS 85.9697 | ETA 04:27:04
Time 01:59:15 | Step 624223 / 2001000 | TPS 85.5617 | ETA 04:28:11
Time 01:59:25 | Step 625083 / 2001000 | TPS 85.9368 | ETA 04:26:50
Time 01:59:35 | Step 625940 / 2001000 | TPS 85.5751 | ETA 04:27:48
Time 01:59:45 | Step 626800 / 2001000 | TPS 85.9204 | ETA 04:26:33
Time 01:59:55 | Step 627656 / 2001000 | TPS 85.5612 | ETA 04:27:31
Time 02:00:05 | Step 628516 / 2001000 | TPS 85.915 | ETA 04:26:14
Time 02:00:15 | Step 629376 / 2001000 | TPS 85.9241 | ETA 04:26:03
Time 02:00:25 | Step 630232 / 2001000 | TPS 85.5499 | ETA 04:27:03
Time 02:00:35 | Step 631092 / 2001000 | TPS 85.9416 | ETA 04:25:39
Time 02:00:45 | Step 631948 / 2001000 | TPS 85.579 | ETA 04:26:37
Time 02:00:55 | Step 632808 / 2001000 | TPS 85.9383 | ETA 04:25:20
Time 02:01:05 | Step 633664 / 2001000 | TPS 85.5635 | ETA 04:26:20
Time 02:01:15 | Step 634524 / 2001000 | TPS 85.9342 | ETA 04:25:01
Time 02:01:25 | Step 635380 / 2001000 | TPS 85.5626 | ETA 04:26:00
Time 02:01:35 | Step 636240 / 2001000 | TPS 85.9394 | ETA 04:24:40
Time 02:01:45 | Step 637096 / 2001000 | TPS 85.5684 | ETA 04:25:39
Time 02:01:55 | Step 637956 / 2001000 | TPS 85.9352 | ETA 04:24:21
Time 02:02:05 | Step 638812 / 2001000 | TPS 85.5559 | ETA 04:25:21
Time 02:02:15 | Step 639672 / 2001000 | TPS 85.5722 | ETA 04:25:08
Time 02:02:25 | Step 640532 / 2001000 | TPS 85.9112 | ETA 04:23:55
Time 02:02:35 | Step 641388 / 2001000 | TPS 85.5566 | ETA 04:24:51
Time 02:02:45 | Step 642247 / 2001000 | TPS 85.8938 | ETA 04:23:38
Time 02:02:55 | Step 643103 / 2001000 | TPS 85.5141 | ETA 04:24:39
Time 02:03:05 | Step 643962 / 2001000 | TPS 85.8911 | ETA 04:23:19
Time 02:03:15 | Step 644817 / 2001000 | TPS 85.4914 | ETA 04:24:23
Time 02:03:25 | Step 645675 / 2001000 | TPS 85.487 | ETA 04:24:14
Time 02:03:35 | Step 646534 / 2001000 | TPS 85.8501 | ETA 04:22:57
Time 02:03:45 | Step 647393 / 2001000 | TPS 85.8829 | ETA 04:22:41
Time 02:03:55 | Step 648249 / 2001000 | TPS 85.5135 | ETA 04:23:39
Time 02:04:05 | Step 649106 / 2001000 | TPS 85.5227 | ETA 04:23:27
Time 02:04:15 | Step 649965 / 2001000 | TPS 85.8815 | ETA 04:22:11
Time 02:04:25 | Step 650820 / 2001000 | TPS 85.488 | ETA 04:23:13
Time 02:04:35 | Step 651676 / 2001000 | TPS 85.5154 | ETA 04:22:58
Time 02:04:45 | Step 652532 / 2001000 | TPS 85.5114 | ETA 04:22:49
Time 02:04:55 | Step 653392 / 2001000 | TPS 85.9074 | ETA 04:21:26
Time 02:05:05 | Step 654248 / 2001000 | TPS 85.5097 | ETA 04:22:29
Time 02:05:15 | Step 655107 / 2001000 | TPS 85.8706 | ETA 04:21:13
Time 02:05:25 | Step 655963 / 2001000 | TPS 85.5085 | ETA 04:22:09
Time 02:05:35 | Step 656822 / 2001000 | TPS 85.8577 | ETA 04:20:55
Time 02:05:45 | Step 657678 / 2001000 | TPS 85.5056 | ETA 04:21:50
Time 02:05:55 | Step 658534 / 2001000 | TPS 85.5063 | ETA 04:21:40
Time 02:06:05 | Step 659393 / 2001000 | TPS 85.8492 | ETA 04:20:27
Time 02:06:15 | Step 660248 / 2001000 | TPS 85.4414 | ETA 04:21:32
Time 02:06:25 | Step 661103 / 2001000 | TPS 85.4682 | ETA 04:21:17
Time 02:06:35 | Step 661962 / 2001000 | TPS 85.8226 | ETA 04:20:02
Time 02:06:45 | Step 662817 / 2001000 | TPS 85.4669 | ETA 04:20:57
Time 02:06:55 | Step 663672 / 2001000 | TPS 85.4734 | ETA 04:20:46
Time 02:07:05 | Step 664528 / 2001000 | TPS 85.4762 | ETA 04:20:35
Time 02:07:15 | Step 665387 / 2001000 | TPS 85.8801 | ETA 04:19:12
Time 02:07:25 | Step 666242 / 2001000 | TPS 85.4911 | ETA 04:20:12
Time 02:07:35 | Step 667098 / 2001000 | TPS 85.5101 | ETA 04:19:59
Time 02:07:45 | Step 667954 / 2001000 | TPS 85.5085 | ETA 04:19:49
Time 02:07:55 | Step 668809 / 2001000 | TPS 85.4807 | ETA 04:19:44
Time 02:08:05 | Step 669664 / 2001000 | TPS 85.4845 | ETA 04:19:34
Time 02:08:15 | Step 670519 / 2001000 | TPS 85.479 | ETA 04:19:25
Time 02:08:25 | Step 671378 / 2001000 | TPS 85.8622 | ETA 04:18:05
Time 02:08:35 | Step 672233 / 2001000 | TPS 85.4757 | ETA 04:19:05
Time 02:08:45 | Step 673088 / 2001000 | TPS 85.4755 | ETA 04:18:55
Time 02:08:55 | Step 673943 / 2001000 | TPS 85.4867 | ETA 04:18:43
Time 02:09:05 | Step 674802 / 2001000 | TPS 85.8393 | ETA 04:17:29
Time 02:09:15 | Step 675657 / 2001000 | TPS 85.4523 | ETA 04:18:29
Time 02:09:25 | Step 676512 / 2001000 | TPS 85.445 | ETA 04:18:21
Time 02:09:35 | Step 677371 / 2001000 | TPS 85.8189 | ETA 04:17:03
Time 02:09:45 | Step 678222 / 2001000 | TPS 85.0713 | ETA 04:19:09
Time 02:09:55 | Step 679077 / 2001000 | TPS 85.4378 | ETA 04:17:52
Time 02:10:05 | Step 679936 / 2001000 | TPS 85.8163 | ETA 04:16:34
Time 02:10:15 | Step 680791 / 2001000 | TPS 85.4151 | ETA 04:17:36
Time 02:10:25 | Step 681646 / 2001000 | TPS 85.4279 | ETA 04:17:24
Time 02:10:35 | Step 682501 / 2001000 | TPS 85.4376 | ETA 04:17:12
Time 02:10:45 | Step 683356 / 2001000 | TPS 85.4605 | ETA 04:16:58
Time 02:10:55 | Step 684211 / 2001000 | TPS 85.4538 | ETA 04:16:49
Time 02:11:05 | Step 685066 / 2001000 | TPS 85.442 | ETA 04:16:41
Time 02:11:15 | Step 685921 / 2001000 | TPS 85.4583 | ETA 04:16:28
Time 02:11:25 | Step 686780 / 2001000 | TPS 85.8237 | ETA 04:15:13
Time 02:11:35 | Step 687635 / 2001000 | TPS 85.446 | ETA 04:16:10
Time 02:11:45 | Step 688490 / 2001000 | TPS 85.4765 | ETA 04:15:55
Time 02:11:55 | Step 689345 / 2001000 | TPS 85.4746 | ETA 04:15:45
Time 02:12:05 | Step 690200 / 2001000 | TPS 85.4625 | ETA 04:15:37
Time 02:12:15 | Step 691055 / 2001000 | TPS 85.4449 | ETA 04:15:30
Time 02:12:25 | Step 691910 / 2001000 | TPS 85.4513 | ETA 04:15:19
Time 02:12:35 | Step 692765 / 2001000 | TPS 85.4371 | ETA 04:15:12
Time 02:12:45 | Step 693623 / 2001000 | TPS 85.7782 | ETA 04:14:01
Time 02:12:55 | Step 694478 / 2001000 | TPS 85.4357 | ETA 04:14:52
Time 02:13:06 | Step 695333 / 2001000 | TPS 85.0676 | ETA 04:15:48
Time 02:13:16 | Step 696188 / 2001000 | TPS 85.4067 | ETA 04:14:37
Time 02:13:26 | Step 697046 / 2001000 | TPS 85.7856 | ETA 04:13:20
Time 02:13:36 | Step 697897 / 2001000 | TPS 85.0615 | ETA 04:15:19
Time 02:13:46 | Step 698752 / 2001000 | TPS 85.4238 | ETA 04:14:04
Time 02:13:56 | Step 699607 / 2001000 | TPS 85.438 | ETA 04:13:52
Time 02:14:06 | Step 700462 / 2001000 | TPS 85.4535 | ETA 04:13:39
Time 02:14:16 | Step 701317 / 2001000 | TPS 85.4555 | ETA 04:13:28
Time 02:14:26 | Step 702148 / 2001000 | TPS 83.0081 | ETA 04:20:47
Time 02:14:36 | Step 702881 / 2001000 | TPS 73.2527 | ETA 04:55:21
Time 02:14:46 | Step 703736 / 2001000 | TPS 85.4492 | ETA 04:13:01
Time 02:14:56 | Step 704591 / 2001000 | TPS 85.459 | ETA 04:12:49
Time 02:15:06 | Step 705446 / 2001000 | TPS 85.4724 | ETA 04:12:37
Time 02:15:16 | Step 706301 / 2001000 | TPS 85.446 | ETA 04:12:32
Time 02:15:26 | Step 707156 / 2001000 | TPS 85.4483 | ETA 04:12:21
Time 02:15:36 | Step 708011 / 2001000 | TPS 85.4281 | ETA 04:12:15
Time 02:15:46 | Step 708866 / 2001000 | TPS 85.4346 | ETA 04:12:04
Time 02:15:56 | Step 709721 / 2001000 | TPS 85.4194 | ETA 04:11:56
Time 02:16:06 | Step 710576 / 2001000 | TPS 85.4319 | ETA 04:11:44
Time 02:16:16 | Step 711431 / 2001000 | TPS 85.4174 | ETA 04:11:37
Time 02:16:26 | Step 712285 / 2001000 | TPS 85.389 | ETA 04:11:32
Time 02:16:36 | Step 713139 / 2001000 | TPS 85.3849 | ETA 04:11:23
Time 02:16:46 | Step 713991 / 2001000 | TPS 85.0381 | ETA 04:12:14
Time 02:16:56 | Step 714845 / 2001000 | TPS 85.3878 | ETA 04:11:02
Time 02:17:06 | Step 715699 / 2001000 | TPS 85.3881 | ETA 04:10:52
Time 02:17:16 | Step 716553 / 2001000 | TPS 85.3905 | ETA 04:10:42
Time 02:17:26 | Step 717408 / 2001000 | TPS 85.4094 | ETA 04:10:28
Time 02:17:36 | Step 718259 / 2001000 | TPS 85.0243 | ETA 04:11:26
Time 02:17:46 | Step 719113 / 2001000 | TPS 85.3993 | ETA 04:10:10
Time 02:17:56 | Step 719968 / 2001000 | TPS 85.4267 | ETA 04:09:55
Time 02:18:06 | Step 720823 / 2001000 | TPS 85.422 | ETA 04:09:46
Time 02:18:16 | Step 721677 / 2001000 | TPS 85.3913 | ETA 04:09:41
Time 02:18:26 | Step 722531 / 2001000 | TPS 85.3989 | ETA 04:09:30
Time 02:18:36 | Step 723386 / 2001000 | TPS 85.4142 | ETA 04:09:17
Time 02:18:46 | Step 724241 / 2001000 | TPS 85.4049 | ETA 04:09:09
Time 02:18:56 | Step 725092 / 2001000 | TPS 85.0089 | ETA 04:10:09
Time 02:19:06 | Step 725946 / 2001000 | TPS 85.3858 | ETA 04:08:52
Time 02:19:16 | Step 726800 / 2001000 | TPS 85.3781 | ETA 04:08:44
Time 02:19:26 | Step 727654 / 2001000 | TPS 85.3819 | ETA 04:08:33
Time 02:19:36 | Step 728504 / 2001000 | TPS 84.9964 | ETA 04:09:31
Time 02:19:46 | Step 729358 / 2001000 | TPS 85.386 | ETA 04:08:12
Time 02:19:56 | Step 730212 / 2001000 | TPS 85.3495 | ETA 04:08:09
Time 02:20:06 | Step 731066 / 2001000 | TPS 85.3583 | ETA 04:07:57
Time 02:20:16 | Step 731920 / 2001000 | TPS 85.3767 | ETA 04:07:44
Time 02:20:26 | Step 732770 / 2001000 | TPS 84.9944 | ETA 04:08:41
Time 02:20:36 | Step 733624 / 2001000 | TPS 85.3894 | ETA 04:07:22
Time 02:20:46 | Step 734478 / 2001000 | TPS 85.3995 | ETA 04:07:10
Time 02:20:56 | Step 735332 / 2001000 | TPS 85.3803 | ETA 04:07:03
Time 02:21:06 | Step 736182 / 2001000 | TPS 84.9958 | ETA 04:08:00
Time 02:21:16 | Step 737036 / 2001000 | TPS 85.3726 | ETA 04:06:45
Time 02:21:26 | Step 737887 / 2001000 | TPS 85.0073 | ETA 04:07:38
Time 02:21:36 | Step 738741 / 2001000 | TPS 85.3564 | ETA 04:06:28
Time 02:21:46 | Step 739595 / 2001000 | TPS 85.3513 | ETA 04:06:18
Time 02:21:56 | Step 740448 / 2001000 | TPS 85.0032 | ETA 04:07:09
Time 02:22:06 | Step 741302 / 2001000 | TPS 85.3556 | ETA 04:05:58
Time 02:22:16 | Step 742156 / 2001000 | TPS 85.3348 | ETA 04:05:51
Time 02:22:26 | Step 743010 / 2001000 | TPS 85.3261 | ETA 04:05:43
Time 02:22:36 | Step 743860 / 2001000 | TPS 84.9729 | ETA 04:06:34
Time 02:22:46 | Step 744714 / 2001000 | TPS 85.3289 | ETA 04:05:22
Time 02:22:56 | Step 745568 / 2001000 | TPS 85.3305 | ETA 04:05:12
Time 02:23:06 | Step 746422 / 2001000 | TPS 85.3443 | ETA 04:05:00
Time 02:23:16 | Step 747276 / 2001000 | TPS 85.306 | ETA 04:04:56
Time 02:23:26 | Step 748126 / 2001000 | TPS 84.9304 | ETA 04:05:51
Time 02:23:36 | Step 748980 / 2001000 | TPS 85.338 | ETA 04:04:31
Time 02:23:46 | Step 749830 / 2001000 | TPS 84.9527 | ETA 04:05:27
Time 02:23:56 | Step 750684 / 2001000 | TPS 85.3372 | ETA 04:04:11
Time 02:24:06 | Step 751534 / 2001000 | TPS 84.9726 | ETA 04:05:04
Time 02:24:16 | Step 752388 / 2001000 | TPS 85.3444 | ETA 04:03:50
Time 02:24:26 | Step 753238 / 2001000 | TPS 84.9556 | ETA 04:04:47
Time 02:24:36 | Step 754092 / 2001000 | TPS 85.3404 | ETA 04:03:30
Time 02:24:46 | Step 754946 / 2001000 | TPS 85.3522 | ETA 04:03:18
Time 02:24:56 | Step 755796 / 2001000 | TPS 84.9638 | ETA 04:04:15
Time 02:25:06 | Step 756650 / 2001000 | TPS 85.3336 | ETA 04:03:02
Time 02:25:16 | Step 757500 / 2001000 | TPS 84.9619 | ETA 04:03:55
Time 02:25:26 | Step 758354 / 2001000 | TPS 85.3262 | ETA 04:02:43
Time 02:25:36 | Step 759208 / 2001000 | TPS 85.3203 | ETA 04:02:34
Time 02:25:46 | Step 760060 / 2001000 | TPS 84.9461 | ETA 04:03:28
Time 02:25:56 | Step 760914 / 2001000 | TPS 85.3196 | ETA 04:02:14
Time 02:26:06 | Step 761767 / 2001000 | TPS 85.2903 | ETA 04:02:09
Time 02:26:16 | Step 762617 / 2001000 | TPS 84.9127 | ETA 04:03:04
Time 02:26:26 | Step 763467 / 2001000 | TPS 84.9074 | ETA 04:02:55
Time 02:26:36 | Step 764320 / 2001000 | TPS 85.274 | ETA 04:01:42
Time 02:26:46 | Step 765170 / 2001000 | TPS 84.9279 | ETA 04:02:31
Time 02:26:56 | Step 766020 / 2001000 | TPS 84.9302 | ETA 04:02:21
Time 02:27:06 | Step 766874 / 2001000 | TPS 85.3464 | ETA 04:01:00
Time 02:27:16 | Step 767724 / 2001000 | TPS 84.9438 | ETA 04:01:58
Time 02:27:26 | Step 768578 / 2001000 | TPS 85.326 | ETA 04:00:43
Time 02:27:36 | Step 769428 / 2001000 | TPS 84.9621 | ETA 04:01:35
Time 02:27:46 | Step 770279 / 2001000 | TPS 84.9476 | ETA 04:01:28
Time 02:27:56 | Step 771133 / 2001000 | TPS 85.3151 | ETA 04:00:15
Time 02:28:06 | Step 771983 / 2001000 | TPS 84.9428 | ETA 04:01:08
Time 02:28:16 | Step 772837 / 2001000 | TPS 85.3066 | ETA 03:59:57
Time 02:28:26 | Step 773687 / 2001000 | TPS 84.9267 | ETA 04:00:51
Time 02:28:36 | Step 774540 / 2001000 | TPS 85.2749 | ETA 03:59:42
Time 02:28:46 | Step 775390 / 2001000 | TPS 84.9171 | ETA 04:00:33
Time 02:28:56 | Step 776243 / 2001000 | TPS 85.2531 | ETA 03:59:26
Time 02:29:06 | Step 777092 / 2001000 | TPS 84.8914 | ETA 04:00:17
Time 02:29:16 | Step 777942 / 2001000 | TPS 84.8994 | ETA 04:00:05
Time 02:29:26 | Step 778795 / 2001000 | TPS 85.2566 | ETA 03:58:55
Time 02:29:36 | Step 779648 / 2001000 | TPS 84.9015 | ETA 03:59:45
Time 02:29:46 | Step 780501 / 2001000 | TPS 85.2532 | ETA 03:58:36
Time 02:29:56 | Step 781353 / 2001000 | TPS 84.9048 | ETA 03:59:24
Time 02:30:06 | Step 782206 / 2001000 | TPS 85.2652 | ETA 03:58:14
Time 02:30:16 | Step 783055 / 2001000 | TPS 84.8867 | ETA 03:59:07
Time 02:30:26 | Step 783905 / 2001000 | TPS 84.9096 | ETA 03:58:54
Time 02:30:36 | Step 784758 / 2001000 | TPS 85.2781 | ETA 03:57:42
Time 02:30:46 | Step 785608 / 2001000 | TPS 84.9063 | ETA 03:58:34
Time 02:30:56 | Step 786461 / 2001000 | TPS 85.2863 | ETA 03:57:20
Time 02:31:06 | Step 787310 / 2001000 | TPS 84.8874 | ETA 03:58:17
Time 02:31:16 | Step 788159 / 2001000 | TPS 84.8824 | ETA 03:58:08
Time 02:31:26 | Step 789012 / 2001000 | TPS 85.2539 | ETA 03:56:56
Time 02:31:36 | Step 789861 / 2001000 | TPS 84.8716 | ETA 03:57:50
Time 02:31:46 | Step 790710 / 2001000 | TPS 84.8554 | ETA 03:57:42
Time 02:31:56 | Step 791563 / 2001000 | TPS 85.241 | ETA 03:56:28
Time 02:32:06 | Step 792412 / 2001000 | TPS 84.8725 | ETA 03:57:20
Time 02:32:16 | Step 793261 / 2001000 | TPS 84.8486 | ETA 03:57:14
Time 02:32:26 | Step 794110 / 2001000 | TPS 84.8485 | ETA 03:57:04
Time 02:32:36 | Step 794959 / 2001000 | TPS 84.8469 | ETA 03:56:54
Time 02:32:46 | Step 795812 / 2001000 | TPS 85.2053 | ETA 03:55:44
Time 02:32:56 | Step 796661 / 2001000 | TPS 84.8242 | ETA 03:56:38
Time 02:33:06 | Step 797510 / 2001000 | TPS 84.8221 | ETA 03:56:28
Time 02:33:16 | Step 798359 / 2001000 | TPS 84.8439 | ETA 03:56:14
Time 02:33:26 | Step 799212 / 2001000 | TPS 85.2139 | ETA 03:55:03
Time 02:33:36 | Step 800061 / 2001000 | TPS 84.8194 | ETA 03:55:58
Time 02:33:46 | Step 800910 / 2001000 | TPS 84.822 | ETA 03:55:48
Time 02:33:56 | Step 801759 / 2001000 | TPS 84.8136 | ETA 03:55:39
Time 02:34:06 | Step 802479 / 2001000 | TPS 71.9446 | ETA 04:37:38
Time 02:34:16 | Step 803308 / 2001000 | TPS 82.8824 | ETA 04:00:50
Time 02:34:26 | Step 804157 / 2001000 | TPS 84.8233 | ETA 03:55:09
Time 02:34:36 | Step 805006 / 2001000 | TPS 84.827 | ETA 03:54:59
Time 02:34:46 | Step 805855 / 2001000 | TPS 84.8207 | ETA 03:54:50
Time 02:34:56 | Step 806707 / 2001000 | TPS 85.1951 | ETA 03:53:38
Time 02:35:06 | Step 807556 / 2001000 | TPS 84.8246 | ETA 03:54:29
Time 02:35:17 | Step 808405 / 2001000 | TPS 84.8212 | ETA 03:54:20
Time 02:35:27 | Step 809253 / 2001000 | TPS 84.7954 | ETA 03:54:14
Time 02:35:37 | Step 810105 / 2001000 | TPS 85.1769 | ETA 03:53:01
Time 02:35:47 | Step 810953 / 2001000 | TPS 84.795 | ETA 03:53:54
Time 02:35:57 | Step 811801 / 2001000 | TPS 84.7809 | ETA 03:53:46
Time 02:36:07 | Step 812649 / 2001000 | TPS 84.7749 | ETA 03:53:37
Time 02:36:17 | Step 813497 / 2001000 | TPS 84.7801 | ETA 03:53:26
Time 02:36:27 | Step 814345 / 2001000 | TPS 84.7621 | ETA 03:53:19
Time 02:36:37 | Step 815197 / 2001000 | TPS 85.1586 | ETA 03:52:04
Time 02:36:47 | Step 816045 / 2001000 | TPS 84.7807 | ETA 03:52:56
Time 02:36:57 | Step 816893 / 2001000 | TPS 84.7996 | ETA 03:52:43
Time 02:37:07 | Step 817737 / 2001000 | TPS 84.382 | ETA 03:53:42
Time 02:37:17 | Step 818589 / 2001000 | TPS 85.1554 | ETA 03:51:25
Time 02:37:27 | Step 819437 / 2001000 | TPS 84.7792 | ETA 03:52:16
Time 02:37:37 | Step 820285 / 2001000 | TPS 84.7493 | ETA 03:52:11
Time 02:37:47 | Step 821133 / 2001000 | TPS 84.7669 | ETA 03:51:58
Time 02:37:57 | Step 821981 / 2001000 | TPS 84.7761 | ETA 03:51:47
Time 02:38:07 | Step 822833 / 2001000 | TPS 85.13 | ETA 03:50:39
Time 02:38:17 | Step 823681 / 2001000 | TPS 84.7401 | ETA 03:51:33
Time 02:38:27 | Step 824529 / 2001000 | TPS 84.737 | ETA 03:51:23
Time 02:38:37 | Step 825377 / 2001000 | TPS 84.7411 | ETA 03:51:13
Time 02:38:47 | Step 826226 / 2001000 | TPS 84.7386 | ETA 03:51:03
Time 02:38:57 | Step 827074 / 2001000 | TPS 84.7143 | ETA 03:50:57
Time 02:39:07 | Step 827922 / 2001000 | TPS 84.7278 | ETA 03:50:45
Time 02:39:17 | Step 828773 / 2001000 | TPS 84.7538 | ETA 03:50:30
Time 02:39:27 | Step 829625 / 2001000 | TPS 85.1168 | ETA 03:49:21
Time 02:39:37 | Step 830473 / 2001000 | TPS 84.7162 | ETA 03:50:17
Time 02:39:47 | Step 831321 / 2001000 | TPS 84.734 | ETA 03:50:04
Time 02:39:57 | Step 832169 / 2001000 | TPS 84.7445 | ETA 03:49:52
Time 02:40:07 | Step 833017 / 2001000 | TPS 84.7423 | ETA 03:49:42
Time 02:40:17 | Step 833861 / 2001000 | TPS 84.3855 | ETA 03:50:31
Time 02:40:27 | Step 834709 / 2001000 | TPS 84.7425 | ETA 03:49:22
Time 02:40:37 | Step 835557 / 2001000 | TPS 84.7135 | ETA 03:49:17
Time 02:40:47 | Step 836405 / 2001000 | TPS 84.7185 | ETA 03:49:06
Time 02:40:57 | Step 837253 / 2001000 | TPS 84.7199 | ETA 03:48:56
Time 02:41:07 | Step 838101 / 2001000 | TPS 84.7129 | ETA 03:48:47
Time 02:41:17 | Step 838949 / 2001000 | TPS 84.7286 | ETA 03:48:34
Time 02:41:27 | Step 839797 / 2001000 | TPS 84.7081 | ETA 03:48:28
Time 02:41:37 | Step 840644 / 2001000 | TPS 84.6727 | ETA 03:48:24
Time 02:41:47 | Step 841488 / 2001000 | TPS 84.307 | ETA 03:49:13
Time 02:41:57 | Step 842339 / 2001000 | TPS 85.0627 | ETA 03:47:01
Time 02:42:07 | Step 843186 / 2001000 | TPS 84.6664 | ETA 03:47:55
Time 02:42:17 | Step 844033 / 2001000 | TPS 84.6601 | ETA 03:47:46
Time 02:42:27 | Step 844876 / 2001000 | TPS 84.2722 | ETA 03:48:38
Time 02:42:37 | Step 845723 / 2001000 | TPS 84.6354 | ETA 03:47:30
Time 02:42:47 | Step 846570 / 2001000 | TPS 84.6554 | ETA 03:47:16
Time 02:42:57 | Step 847417 / 2001000 | TPS 84.694 | ETA 03:47:00
Time 02:43:07 | Step 848264 / 2001000 | TPS 84.6783 | ETA 03:46:53
Time 02:43:17 | Step 849111 / 2001000 | TPS 84.6766 | ETA 03:46:43
Time 02:43:27 | Step 849958 / 2001000 | TPS 84.6802 | ETA 03:46:32
Time 02:43:37 | Step 850805 / 2001000 | TPS 84.6556 | ETA 03:46:26
Time 02:43:47 | Step 851648 / 2001000 | TPS 84.2784 | ETA 03:47:17
Time 02:43:57 | Step 852495 / 2001000 | TPS 84.6811 | ETA 03:46:02
Time 02:44:07 | Step 853343 / 2001000 | TPS 84.653 | ETA 03:45:57
Time 02:44:17 | Step 854190 / 2001000 | TPS 84.6458 | ETA 03:45:48
Time 02:44:27 | Step 855040 / 2001000 | TPS 84.9967 | ETA 03:44:42
Time 02:44:37 | Step 855883 / 2001000 | TPS 84.2515 | ETA 03:46:31
Time 02:44:47 | Step 856730 / 2001000 | TPS 84.6468 | ETA 03:45:18
Time 02:44:57 | Step 857577 / 2001000 | TPS 84.6273 | ETA 03:45:11
Time 02:45:07 | Step 858424 / 2001000 | TPS 84.6261 | ETA 03:45:01
Time 02:45:17 | Step 859271 / 2001000 | TPS 84.616 | ETA 03:44:53
Time 02:45:27 | Step 860118 / 2001000 | TPS 84.6064 | ETA 03:44:44
Time 02:45:37 | Step 860965 / 2001000 | TPS 84.6342 | ETA 03:44:30
Time 02:45:47 | Step 861808 / 2001000 | TPS 84.2433 | ETA 03:45:22
Time 02:45:57 | Step 862655 / 2001000 | TPS 84.6258 | ETA 03:44:11
Time 02:46:07 | Step 863501 / 2001000 | TPS 84.5932 | ETA 03:44:06
Time 02:46:17 | Step 864348 / 2001000 | TPS 84.6208 | ETA 03:43:52
Time 02:46:27 | Step 865195 / 2001000 | TPS 84.612 | ETA 03:43:43
Time 02:46:37 | Step 866042 / 2001000 | TPS 84.6125 | ETA 03:43:33
Time 02:46:47 | Step 866885 / 2001000 | TPS 84.2372 | ETA 03:44:23
Time 02:46:57 | Step 867732 / 2001000 | TPS 84.6148 | ETA 03:43:13
Time 02:47:07 | Step 868578 / 2001000 | TPS 84.594 | ETA 03:43:06
Time 02:47:17 | Step 869425 / 2001000 | TPS 84.6073 | ETA 03:42:54
Time 02:47:27 | Step 870271 / 2001000 | TPS 84.5805 | ETA 03:42:48
Time 02:47:37 | Step 871117 / 2001000 | TPS 84.5601 | ETA 03:42:41
Time 02:47:47 | Step 871959 / 2001000 | TPS 84.1913 | ETA 03:43:30
Time 02:47:57 | Step 872805 / 2001000 | TPS 84.567 | ETA 03:42:20
Time 02:48:07 | Step 873651 / 2001000 | TPS 84.5379 | ETA 03:42:15
Time 02:48:17 | Step 874493 / 2001000 | TPS 84.1614 | ETA 03:43:05
Time 02:48:27 | Step 875339 / 2001000 | TPS 84.5368 | ETA 03:41:55
Time 02:48:37 | Step 876185 / 2001000 | TPS 84.5287 | ETA 03:41:46
Time 02:48:47 | Step 877030 / 2001000 | TPS 84.1538 | ETA 03:42:36
Time 02:48:57 | Step 877876 / 2001000 | TPS 84.5545 | ETA 03:41:22
Time 02:49:07 | Step 878722 / 2001000 | TPS 84.5482 | ETA 03:41:13
Time 02:49:17 | Step 879564 / 2001000 | TPS 84.1392 | ETA 03:42:08
Time 02:49:27 | Step 880410 / 2001000 | TPS 84.533 | ETA 03:40:56
Time 02:49:37 | Step 881255 / 2001000 | TPS 84.4952 | ETA 03:40:52
Time 02:49:47 | Step 882100 / 2001000 | TPS 84.4956 | ETA 03:40:42
Time 02:49:57 | Step 882942 / 2001000 | TPS 84.125 | ETA 03:41:30
Time 02:50:07 | Step 883787 / 2001000 | TPS 84.1183 | ETA 03:41:21
Time 02:50:17 | Step 884632 / 2001000 | TPS 84.4659 | ETA 03:40:16
Time 02:50:27 | Step 885477 / 2001000 | TPS 84.4771 | ETA 03:40:05
Time 02:50:37 | Step 886318 / 2001000 | TPS 84.0706 | ETA 03:40:58
Time 02:50:47 | Step 887163 / 2001000 | TPS 84.4671 | ETA 03:39:46
Time 02:50:57 | Step 888008 / 2001000 | TPS 84.457 | ETA 03:39:38
Time 02:51:07 | Step 888853 / 2001000 | TPS 84.4681 | ETA 03:39:26
Time 02:51:17 | Step 889694 / 2001000 | TPS 84.0586 | ETA 03:40:20
Time 02:51:27 | Step 890539 / 2001000 | TPS 84.4332 | ETA 03:39:11
Time 02:51:37 | Step 891384 / 2001000 | TPS 84.438 | ETA 03:39:01
Time 02:51:47 | Step 892229 / 2001000 | TPS 84.4501 | ETA 03:38:49
Time 02:51:57 | Step 893070 / 2001000 | TPS 84.0559 | ETA 03:39:40
Time 02:52:07 | Step 893914 / 2001000 | TPS 84.0979 | ETA 03:39:24
Time 02:52:17 | Step 894759 / 2001000 | TPS 84.4505 | ETA 03:38:19
Time 02:52:27 | Step 895604 / 2001000 | TPS 84.4484 | ETA 03:38:09
Time 02:52:37 | Step 896445 / 2001000 | TPS 84.044 | ETA 03:39:02
Time 02:52:47 | Step 897290 / 2001000 | TPS 84.4314 | ETA 03:37:52
Time 02:52:57 | Step 898131 / 2001000 | TPS 84.0316 | ETA 03:38:44
Time 02:53:07 | Step 898972 / 2001000 | TPS 84.0429 | ETA 03:38:32
Time 02:53:17 | Step 899817 / 2001000 | TPS 84.4255 | ETA 03:37:23
Time 02:53:27 | Step 900662 / 2001000 | TPS 84.414 | ETA 03:37:15
Time 02:53:37 | Step 901503 / 2001000 | TPS 84.0291 | ETA 03:38:04
Time 02:53:47 | Step 902348 / 2001000 | TPS 84.4155 | ETA 03:36:54
Time 02:53:57 | Step 903041 / 2001000 | TPS 69.2407 | ETA 04:24:17
Time 02:54:07 | Step 903882 / 2001000 | TPS 84.0077 | ETA 03:37:39
Time 02:54:17 | Step 904723 / 2001000 | TPS 83.9869 | ETA 03:37:32
Time 02:54:27 | Step 905567 / 2001000 | TPS 84.3569 | ETA 03:36:25
Time 02:54:37 | Step 906411 / 2001000 | TPS 84.3758 | ETA 03:36:12
Time 02:54:47 | Step 907251 / 2001000 | TPS 83.9837 | ETA 03:37:03
Time 02:54:57 | Step 908095 / 2001000 | TPS 84.0023 | ETA 03:36:50
Time 02:55:07 | Step 908935 / 2001000 | TPS 83.9888 | ETA 03:36:42
Time 02:55:17 | Step 909779 / 2001000 | TPS 84.3692 | ETA 03:35:33
Time 02:55:27 | Step 910619 / 2001000 | TPS 83.9649 | ETA 03:36:26
Time 02:55:37 | Step 911463 / 2001000 | TPS 84.3652 | ETA 03:35:14
Time 02:55:47 | Step 912303 / 2001000 | TPS 83.9597 | ETA 03:36:06
Time 02:55:57 | Step 913147 / 2001000 | TPS 84.3642 | ETA 03:34:54
Time 02:56:07 | Step 913987 / 2001000 | TPS 83.984 | ETA 03:35:43
Time 02:56:17 | Step 914831 / 2001000 | TPS 84.3608 | ETA 03:34:35
Time 02:56:27 | Step 915675 / 2001000 | TPS 84.3321 | ETA 03:34:29
Time 02:56:37 | Step 916515 / 2001000 | TPS 83.9343 | ETA 03:35:20
Time 02:56:47 | Step 917355 / 2001000 | TPS 83.9457 | ETA 03:35:08
Time 02:56:57 | Step 918199 / 2001000 | TPS 84.326 | ETA 03:34:00
Time 02:57:07 | Step 919039 / 2001000 | TPS 83.9381 | ETA 03:34:49
Time 02:57:17 | Step 919883 / 2001000 | TPS 84.3236 | ETA 03:33:41
Time 02:57:27 | Step 920723 / 2001000 | TPS 83.9121 | ETA 03:34:33
Time 02:57:38 | Step 921567 / 2001000 | TPS 84.3136 | ETA 03:33:22
Time 02:57:48 | Step 922407 / 2001000 | TPS 83.9491 | ETA 03:34:08
Time 02:57:58 | Step 923251 / 2001000 | TPS 84.3202 | ETA 03:33:01
Time 02:58:08 | Step 924091 / 2001000 | TPS 83.9271 | ETA 03:33:51
Time 02:58:18 | Step 924935 / 2001000 | TPS 84.3336 | ETA 03:32:39
Time 02:58:28 | Step 925775 / 2001000 | TPS 83.9291 | ETA 03:33:31
Time 02:58:38 | Step 926615 / 2001000 | TPS 83.9229 | ETA 03:33:22
Time 02:58:48 | Step 927456 / 2001000 | TPS 84.0695 | ETA 03:32:49
Time 02:58:58 | Step 928295 / 2001000 | TPS 83.8531 | ETA 03:33:12
Time 02:59:08 | Step 929134 / 2001000 | TPS 83.8587 | ETA 03:33:01
Time 02:59:18 | Step 929977 / 2001000 | TPS 84.2497 | ETA 03:31:52
Time 02:59:28 | Step 930816 / 2001000 | TPS 83.8433 | ETA 03:32:44
Time 02:59:38 | Step 931655 / 2001000 | TPS 83.8535 | ETA 03:32:32
Time 02:59:48 | Step 932494 / 2001000 | TPS 83.8453 | ETA 03:32:23
Time 02:59:58 | Step 933332 / 2001000 | TPS 83.7752 | ETA 03:32:24
Time 03:00:08 | Step 934174 / 2001000 | TPS 84.1482 | ETA 03:31:17
Time 03:00:18 | Step 935012 / 2001000 | TPS 83.7657 | ETA 03:32:05
Time 03:00:28 | Step 935850 / 2001000 | TPS 83.7627 | ETA 03:31:56
Time 03:00:38 | Step 936692 / 2001000 | TPS 84.1407 | ETA 03:30:49
Time 03:00:48 | Step 937530 / 2001000 | TPS 83.7617 | ETA 03:31:36
Time 03:00:58 | Step 938368 / 2001000 | TPS 83.7621 | ETA 03:31:26
Time 03:01:08 | Step 939206 / 2001000 | TPS 83.7347 | ETA 03:31:20
Time 03:01:18 | Step 940044 / 2001000 | TPS 83.743 | ETA 03:31:09
Time 03:01:28 | Step 940882 / 2001000 | TPS 83.7488 | ETA 03:30:58
Time 03:01:38 | Step 941720 / 2001000 | TPS 83.752 | ETA 03:30:47
Time 03:01:48 | Step 942559 / 2001000 | TPS 83.7436 | ETA 03:30:39
Time 03:01:58 | Step 943401 / 2001000 | TPS 84.1412 | ETA 03:29:29
Time 03:02:08 | Step 944239 / 2001000 | TPS 83.7156 | ETA 03:30:23
Time 03:02:18 | Step 945076 / 2001000 | TPS 83.694 | ETA 03:30:16
Time 03:02:28 | Step 945914 / 2001000 | TPS 83.724 | ETA 03:30:01
Time 03:02:38 | Step 946756 / 2001000 | TPS 84.1274 | ETA 03:28:51
Time 03:02:48 | Step 947594 / 2001000 | TPS 83.7376 | ETA 03:29:39
Time 03:02:58 | Step 948432 / 2001000 | TPS 83.7565 | ETA 03:29:27
Time 03:03:08 | Step 949270 / 2001000 | TPS 83.7266 | ETA 03:29:21
Time 03:03:18 | Step 950107 / 2001000 | TPS 83.6968 | ETA 03:29:15
Time 03:03:28 | Step 950945 / 2001000 | TPS 83.7087 | ETA 03:29:04
Time 03:03:38 | Step 951782 / 2001000 | TPS 83.6919 | ETA 03:28:56
Time 03:03:48 | Step 952623 / 2001000 | TPS 84.0806 | ETA 03:27:48
Time 03:03:58 | Step 953460 / 2001000 | TPS 83.694 | ETA 03:28:36
Time 03:04:08 | Step 954297 / 2001000 | TPS 83.69 | ETA 03:28:26
Time 03:04:18 | Step 955138 / 2001000 | TPS 84.072 | ETA 03:27:20
Time 03:04:28 | Step 955975 / 2001000 | TPS 83.6709 | ETA 03:28:09
Time 03:04:38 | Step 956812 / 2001000 | TPS 83.6897 | ETA 03:27:56
Time 03:04:48 | Step 957653 / 2001000 | TPS 84.0835 | ETA 03:26:48
Time 03:04:58 | Step 958490 / 2001000 | TPS 83.6919 | ETA 03:27:36
Time 03:05:08 | Step 959327 / 2001000 | TPS 83.6857 | ETA 03:27:27
Time 03:05:18 | Step 960164 / 2001000 | TPS 83.6845 | ETA 03:27:17
Time 03:05:28 | Step 961001 / 2001000 | TPS 83.6672 | ETA 03:27:10
Time 03:05:38 | Step 961841 / 2001000 | TPS 83.6799 | ETA 03:26:58
Time 03:05:48 | Step 962682 / 2001000 | TPS 84.0432 | ETA 03:25:54
Time 03:05:58 | Step 963519 / 2001000 | TPS 83.6387 | ETA 03:26:44
Time 03:06:08 | Step 964356 / 2001000 | TPS 83.6435 | ETA 03:26:33
Time 03:06:18 | Step 965197 / 2001000 | TPS 84.0332 | ETA 03:25:26
Time 03:06:28 | Step 966034 / 2001000 | TPS 83.6259 | ETA 03:26:16
Time 03:06:38 | Step 966871 / 2001000 | TPS 83.6429 | ETA 03:26:03
Time 03:06:48 | Step 967708 / 2001000 | TPS 83.6435 | ETA 03:25:53
Time 03:06:58 | Step 968545 / 2001000 | TPS 83.6398 | ETA 03:25:44
Time 03:07:08 | Step 969386 / 2001000 | TPS 84.0513 | ETA 03:24:33
Time 03:07:18 | Step 970220 / 2001000 | TPS 83.2493 | ETA 03:26:21
Time 03:07:28 | Step 971061 / 2001000 | TPS 84.0384 | ETA 03:24:15
Time 03:07:38 | Step 971898 / 2001000 | TPS 83.6493 | ETA 03:25:02
Time 03:07:48 | Step 972735 / 2001000 | TPS 83.6233 | ETA 03:24:56
Time 03:07:58 | Step 973572 / 2001000 | TPS 83.6501 | ETA 03:24:42
Time 03:08:08 | Step 974409 / 2001000 | TPS 83.6611 | ETA 03:24:30
Time 03:08:18 | Step 975246 / 2001000 | TPS 83.6362 | ETA 03:24:24
Time 03:08:28 | Step 976083 / 2001000 | TPS 83.6218 | ETA 03:24:16
Time 03:08:38 | Step 976923 / 2001000 | TPS 83.643 | ETA 03:24:03
Time 03:08:48 | Step 977760 / 2001000 | TPS 83.6166 | ETA 03:23:57
Time 03:08:58 | Step 978601 / 2001000 | TPS 84.0062 | ETA 03:22:50
[...]
Time 19:24:38 | Step 3908339 / 4001000 | TPS 34.28 | ETA 00:45:03
Time 19:24:48 | Step 3908604 / 4001000 | TPS 26.4928 | ETA 00:58:07
Time 19:24:58 | Step 3908981 / 4001000 | TPS 37.6874 | ETA 00:40:41
Time 19:25:08 | Step 3909361 / 4001000 | TPS 37.9088 | ETA 00:40:17
Time 19:25:18 | Step 3909737 / 4001000 | TPS 37.5556 | ETA 00:40:30
Time 19:25:28 | Step 3910116 / 4001000 | TPS 37.8975 | ETA 00:39:58
Time 19:25:38 | Step 3910493 / 4001000 | TPS 37.683 | ETA 00:40:01
Time 19:25:48 | Step 3910873 / 4001000 | TPS 37.903 | ETA 00:39:37
Time 19:25:58 | Step 3911250 / 4001000 | TPS 37.677 | ETA 00:39:42
Time 19:26:08 | Step 3911630 / 4001000 | TPS 37.9041 | ETA 00:39:17
Time 19:26:18 | Step 3912007 / 4001000 | TPS 37.677 | ETA 00:39:22
Time 19:26:28 | Step 3912387 / 4001000 | TPS 37.9094 | ETA 00:38:57
Time 19:26:38 | Step 3912764 / 4001000 | TPS 37.6771 | ETA 00:39:01
Time 19:26:48 | Step 3913144 / 4001000 | TPS 37.9046 | ETA 00:38:37
Time 19:26:58 | Step 3913521 / 4001000 | TPS 37.6748 | ETA 00:38:41
Time 19:27:08 | Step 3913901 / 4001000 | TPS 37.9021 | ETA 00:38:18
Time 19:27:18 | Step 3914278 / 4001000 | TPS 37.6744 | ETA 00:38:21
Time 19:27:28 | Step 3914655 / 4001000 | TPS 37.674 | ETA 00:38:11
Time 19:27:38 | Step 3915032 / 4001000 | TPS 37.6751 | ETA 00:38:01
Time 19:27:48 | Step 3915412 / 4001000 | TPS 37.9022 | ETA 00:37:38
Time 19:27:58 | Step 3915789 / 4001000 | TPS 37.666 | ETA 00:37:42
Time 19:28:08 | Step 3916168 / 4001000 | TPS 37.892 | ETA 00:37:18
Time 19:28:18 | Step 3916545 / 4001000 | TPS 37.6676 | ETA 00:37:22
Time 19:28:28 | Step 3916925 / 4001000 | TPS 37.902 | ETA 00:36:58
Time 19:28:38 | Step 3917302 / 4001000 | TPS 37.6708 | ETA 00:37:01
Time 19:28:48 | Step 3917681 / 4001000 | TPS 37.8936 | ETA 00:36:38
Time 19:28:58 | Step 3918058 / 4001000 | TPS 37.6683 | ETA 00:36:41
Time 19:29:08 | Step 3918437 / 4001000 | TPS 37.8995 | ETA 00:36:18
Time 19:29:18 | Step 3918814 / 4001000 | TPS 37.6674 | ETA 00:36:21
Time 19:29:28 | Step 3919191 / 4001000 | TPS 37.6684 | ETA 00:36:11
Time 19:29:38 | Step 3919570 / 4001000 | TPS 37.8942 | ETA 00:35:48
Time 19:29:48 | Step 3919949 / 4001000 | TPS 37.8965 | ETA 00:35:38
Time 19:29:58 | Step 3920326 / 4001000 | TPS 37.6615 | ETA 00:35:42
Time 19:30:08 | Step 3920703 / 4001000 | TPS 37.663 | ETA 00:35:31
Time 19:30:18 | Step 3921082 / 4001000 | TPS 37.8843 | ETA 00:35:09
Time 19:30:28 | Step 3921459 / 4001000 | TPS 37.6509 | ETA 00:35:12
Time 19:30:38 | Step 3921838 / 4001000 | TPS 37.8861 | ETA 00:34:49
Time 19:30:48 | Step 3922216 / 4001000 | TPS 37.6597 | ETA 00:34:51
Time 19:30:58 | Step 3922595 / 4001000 | TPS 37.8888 | ETA 00:34:29
Time 19:31:08 | Step 3922974 / 4001000 | TPS 37.8902 | ETA 00:34:19
Time 19:31:18 | Step 3923353 / 4001000 | TPS 37.6658 | ETA 00:34:21
Time 19:31:28 | Step 3923732 / 4001000 | TPS 37.8891 | ETA 00:33:59
Time 19:31:38 | Step 3924111 / 4001000 | TPS 37.8885 | ETA 00:33:49
Time 19:31:48 | Step 3924488 / 4001000 | TPS 37.6641 | ETA 00:33:51
Time 19:31:58 | Step 3924867 / 4001000 | TPS 37.8812 | ETA 00:33:29
Time 19:32:08 | Step 3925246 / 4001000 | TPS 37.8808 | ETA 00:33:19
Time 19:32:18 | Step 3925623 / 4001000 | TPS 37.6554 | ETA 00:33:21
Time 19:32:28 | Step 3926002 / 4001000 | TPS 37.8786 | ETA 00:32:59
Time 19:32:38 | Step 3926379 / 4001000 | TPS 37.6596 | ETA 00:33:01
Time 19:32:48 | Step 3926756 / 4001000 | TPS 37.6517 | ETA 00:32:51
Time 19:32:58 | Step 3927135 / 4001000 | TPS 37.865 | ETA 00:32:30
Time 19:33:08 | Step 3927514 / 4001000 | TPS 37.8807 | ETA 00:32:19
Time 19:33:18 | Step 3927891 / 4001000 | TPS 37.661 | ETA 00:32:21
Time 19:33:28 | Step 3928270 / 4001000 | TPS 37.8771 | ETA 00:32:00
Time 19:33:38 | Step 3928647 / 4001000 | TPS 37.6514 | ETA 00:32:01
Time 19:33:48 | Step 3929026 / 4001000 | TPS 37.8759 | ETA 00:31:40
Time 19:33:58 | Step 3929405 / 4001000 | TPS 37.8828 | ETA 00:31:29
Time 19:34:09 | Step 3929782 / 4001000 | TPS 37.6495 | ETA 00:31:31
Time 19:34:19 | Step 3930161 / 4001000 | TPS 37.8754 | ETA 00:31:10
Time 19:34:29 | Step 3930540 / 4001000 | TPS 37.8729 | ETA 00:31:00
Time 19:34:39 | Step 3930919 / 4001000 | TPS 37.8776 | ETA 00:30:50
Time 19:34:49 | Step 3931298 / 4001000 | TPS 37.8733 | ETA 00:30:40
Time 19:34:59 | Step 3931675 / 4001000 | TPS 37.6463 | ETA 00:30:41
Time 19:35:09 | Step 3932054 / 4001000 | TPS 37.872 | ETA 00:30:20
Time 19:35:19 | Step 3932433 / 4001000 | TPS 37.8694 | ETA 00:30:10
Time 19:35:29 | Step 3932810 / 4001000 | TPS 37.6401 | ETA 00:30:11
Time 19:35:39 | Step 3933189 / 4001000 | TPS 37.8747 | ETA 00:29:50
Time 19:35:49 | Step 3933566 / 4001000 | TPS 37.6491 | ETA 00:29:51
Time 19:35:59 | Step 3933945 / 4001000 | TPS 37.8774 | ETA 00:29:30
Time 19:36:09 | Step 3934324 / 4001000 | TPS 37.8736 | ETA 00:29:20
Time 19:36:19 | Step 3934703 / 4001000 | TPS 37.8727 | ETA 00:29:10
Time 19:36:29 | Step 3935082 / 4001000 | TPS 37.868 | ETA 00:29:00
Time 19:36:39 | Step 3935459 / 4001000 | TPS 37.6449 | ETA 00:29:01
Time 19:36:49 | Step 3935838 / 4001000 | TPS 37.8684 | ETA 00:28:40
Time 19:36:59 | Step 3936217 / 4001000 | TPS 37.8673 | ETA 00:28:30
Time 19:37:09 | Step 3936594 / 4001000 | TPS 37.6395 | ETA 00:28:31
Time 19:37:19 | Step 3936973 / 4001000 | TPS 37.87 | ETA 00:28:10
Time 19:37:29 | Step 3937350 / 4001000 | TPS 37.6386 | ETA 00:28:11
Time 19:37:39 | Step 3937727 / 4001000 | TPS 37.6416 | ETA 00:28:00
Time 19:37:49 | Step 3938106 / 4001000 | TPS 37.8528 | ETA 00:27:41
Time 19:37:59 | Step 3938483 / 4001000 | TPS 37.6369 | ETA 00:27:41
Time 19:38:09 | Step 3938862 / 4001000 | TPS 37.8619 | ETA 00:27:21
Time 19:38:19 | Step 3939239 / 4001000 | TPS 37.6374 | ETA 00:27:20
Time 19:38:29 | Step 3939618 / 4001000 | TPS 37.8638 | ETA 00:27:01
Time 19:38:39 | Step 3939995 / 4001000 | TPS 37.6399 | ETA 00:27:00
Time 19:38:49 | Step 3940374 / 4001000 | TPS 37.8616 | ETA 00:26:41
Time 19:38:59 | Step 3940751 / 4001000 | TPS 37.6377 | ETA 00:26:40
Time 19:39:09 | Step 3941130 / 4001000 | TPS 37.8639 | ETA 00:26:21
Time 19:39:19 | Step 3941507 / 4001000 | TPS 37.6336 | ETA 00:26:20
Time 19:39:29 | Step 3941886 / 4001000 | TPS 37.8643 | ETA 00:26:01
Time 19:39:39 | Step 3942265 / 4001000 | TPS 37.8558 | ETA 00:25:51
Time 19:39:49 | Step 3942642 / 4001000 | TPS 37.6314 | ETA 00:25:50
Time 19:39:59 | Step 3943021 / 4001000 | TPS 37.8531 | ETA 00:25:31
Time 19:40:09 | Step 3943400 / 4001000 | TPS 37.8647 | ETA 00:25:21
Time 19:40:19 | Step 3943779 / 4001000 | TPS 37.8516 | ETA 00:25:11
Time 19:40:29 | Step 3944156 / 4001000 | TPS 37.6216 | ETA 00:25:10
Time 19:40:39 | Step 3944535 / 4001000 | TPS 37.856 | ETA 00:24:51
Time 19:40:49 | Step 3944914 / 4001000 | TPS 37.8578 | ETA 00:24:41
Time 19:40:59 | Step 3945291 / 4001000 | TPS 37.6279 | ETA 00:24:40
Time 19:41:09 | Step 3945670 / 4001000 | TPS 37.8526 | ETA 00:24:21
Time 19:41:19 | Step 3946049 / 4001000 | TPS 37.8534 | ETA 00:24:11
Time 19:41:29 | Step 3946426 / 4001000 | TPS 37.6325 | ETA 00:24:10
Time 19:41:39 | Step 3946805 / 4001000 | TPS 37.8534 | ETA 00:23:51
Time 19:41:49 | Step 3947182 / 4001000 | TPS 37.6281 | ETA 00:23:50
Time 19:41:59 | Step 3947561 / 4001000 | TPS 37.8505 | ETA 00:23:31
Time 19:42:09 | Step 3947940 / 4001000 | TPS 37.8528 | ETA 00:23:21
Time 19:42:19 | Step 3948317 / 4001000 | TPS 37.626 | ETA 00:23:20
Time 19:42:29 | Step 3948696 / 4001000 | TPS 37.8511 | ETA 00:23:01
Time 19:42:39 | Step 3949073 / 4001000 | TPS 37.6259 | ETA 00:23:00
Time 19:42:49 | Step 3949450 / 4001000 | TPS 37.6256 | ETA 00:22:50
Time 19:42:59 | Step 3949829 / 4001000 | TPS 37.8309 | ETA 00:22:32
Time 19:43:09 | Step 3950208 / 4001000 | TPS 37.8479 | ETA 00:22:22
Time 19:43:19 | Step 3950587 / 4001000 | TPS 37.8466 | ETA 00:22:12
Time 19:43:29 | Step 3950966 / 4001000 | TPS 37.8516 | ETA 00:22:01
Time 19:43:39 | Step 3951343 / 4001000 | TPS 37.6243 | ETA 00:21:59
Time 19:43:49 | Step 3951722 / 4001000 | TPS 37.8467 | ETA 00:21:42
Time 19:43:59 | Step 3952099 / 4001000 | TPS 37.6207 | ETA 00:21:39
Time 19:44:09 | Step 3952478 / 4001000 | TPS 37.8505 | ETA 00:21:21
Time 19:44:19 | Step 3952857 / 4001000 | TPS 37.8434 | ETA 00:21:12
Time 19:44:29 | Step 3953236 / 4001000 | TPS 37.8418 | ETA 00:21:02
Time 19:44:39 | Step 3953613 / 4001000 | TPS 37.6193 | ETA 00:20:59
Time 19:44:49 | Step 3953992 / 4001000 | TPS 37.8472 | ETA 00:20:42
Time 19:44:59 | Step 3954371 / 4001000 | TPS 37.8378 | ETA 00:20:32
Time 19:45:09 | Step 3954750 / 4001000 | TPS 37.8363 | ETA 00:20:22
Time 19:45:19 | Step 3955127 / 4001000 | TPS 37.6146 | ETA 00:20:19
Time 19:45:29 | Step 3955506 / 4001000 | TPS 37.8491 | ETA 00:20:01
Time 19:45:39 | Step 3955885 / 4001000 | TPS 37.8465 | ETA 00:19:52
Time 19:45:49 | Step 3956264 / 4001000 | TPS 37.8467 | ETA 00:19:42
Time 19:45:59 | Step 3956643 / 4001000 | TPS 37.8493 | ETA 00:19:31
Time 19:46:09 | Step 3957020 / 4001000 | TPS 37.6263 | ETA 00:19:28
Time 19:46:19 | Step 3957399 / 4001000 | TPS 37.8563 | ETA 00:19:11
Time 19:46:30 | Step 3957778 / 4001000 | TPS 37.8495 | ETA 00:19:01
Time 19:46:40 | Step 3958157 / 4001000 | TPS 37.8375 | ETA 00:18:52
Time 19:46:50 | Step 3958536 / 4001000 | TPS 37.8251 | ETA 00:18:42
Time 19:47:00 | Step 3958915 / 4001000 | TPS 37.8412 | ETA 00:18:32
Time 19:47:10 | Step 3959294 / 4001000 | TPS 37.8386 | ETA 00:18:22
Time 19:47:20 | Step 3959673 / 4001000 | TPS 37.8385 | ETA 00:18:12
Time 19:47:30 | Step 3960052 / 4001000 | TPS 37.8374 | ETA 00:18:02
Time 19:47:40 | Step 3960431 / 4001000 | TPS 37.8413 | ETA 00:17:52
Time 19:47:50 | Step 3960808 / 4001000 | TPS 37.6028 | ETA 00:17:48
Time 19:48:00 | Step 3961189 / 4001000 | TPS 38.0465 | ETA 00:17:26
Time 19:48:10 | Step 3961566 / 4001000 | TPS 37.6026 | ETA 00:17:28
Time 19:48:20 | Step 3961945 / 4001000 | TPS 37.8354 | ETA 00:17:12
Time 19:48:30 | Step 3962324 / 4001000 | TPS 37.8324 | ETA 00:17:02
Time 19:48:40 | Step 3962703 / 4001000 | TPS 37.8288 | ETA 00:16:52
Time 19:48:50 | Step 3963082 / 4001000 | TPS 37.8282 | ETA 00:16:42
Time 19:49:00 | Step 3963461 / 4001000 | TPS 37.8333 | ETA 00:16:32
Time 19:49:10 | Step 3963838 / 4001000 | TPS 37.6075 | ETA 00:16:28
Time 19:49:20 | Step 3964217 / 4001000 | TPS 37.8289 | ETA 00:16:12
Time 19:49:30 | Step 3964596 / 4001000 | TPS 37.8277 | ETA 00:16:02
Time 19:49:40 | Step 3964975 / 4001000 | TPS 37.8369 | ETA 00:15:52
Time 19:49:50 | Step 3965354 / 4001000 | TPS 37.8307 | ETA 00:15:42
Time 19:50:00 | Step 3965733 / 4001000 | TPS 37.8326 | ETA 00:15:32
Time 19:50:10 | Step 3966112 / 4001000 | TPS 37.8308 | ETA 00:15:22
Time 19:50:20 | Step 3966491 / 4001000 | TPS 37.8286 | ETA 00:15:12
Time 19:50:30 | Step 3966870 / 4001000 | TPS 37.6063 | ETA 00:15:07
Time 19:50:40 | Step 3967251 / 4001000 | TPS 38.0497 | ETA 00:14:46
Time 19:50:50 | Step 3967630 / 4001000 | TPS 37.8164 | ETA 00:14:42
Time 19:51:00 | Step 3968009 / 4001000 | TPS 37.8249 | ETA 00:14:32
Time 19:51:10 | Step 3968388 / 4001000 | TPS 37.8248 | ETA 00:14:22
Time 19:51:20 | Step 3968767 / 4001000 | TPS 37.8201 | ETA 00:14:12
Time 19:51:30 | Step 3969143 / 4001000 | TPS 37.5942 | ETA 00:14:07
Time 19:51:40 | Step 3969522 / 4001000 | TPS 37.8197 | ETA 00:13:52
Time 19:51:50 | Step 3969901 / 4001000 | TPS 37.8216 | ETA 00:13:42
Time 19:52:00 | Step 3970280 / 4001000 | TPS 37.8189 | ETA 00:13:32
Time 19:52:10 | Step 3970659 / 4001000 | TPS 37.8176 | ETA 00:13:22
Time 19:52:20 | Step 3971038 / 4001000 | TPS 37.8178 | ETA 00:13:12
Time 19:52:30 | Step 3971417 / 4001000 | TPS 37.8234 | ETA 00:13:02
Time 19:52:40 | Step 3971796 / 4001000 | TPS 37.8187 | ETA 00:12:52
Time 19:52:50 | Step 3972174 / 4001000 | TPS 37.7995 | ETA 00:12:42
Time 19:53:00 | Step 3972553 / 4001000 | TPS 37.821 | ETA 00:12:32
Time 19:53:10 | Step 3972932 / 4001000 | TPS 37.8249 | ETA 00:12:22
Time 19:53:20 | Step 3973311 / 4001000 | TPS 37.8201 | ETA 00:12:12
Time 19:53:30 | Step 3973690 / 4001000 | TPS 37.8185 | ETA 00:12:02
Time 19:53:40 | Step 3974069 / 4001000 | TPS 37.816 | ETA 00:11:52
Time 19:53:50 | Step 3974448 / 4001000 | TPS 37.8202 | ETA 00:11:42
Time 19:54:00 | Step 3974827 / 4001000 | TPS 37.8157 | ETA 00:11:32
Time 19:54:10 | Step 3975206 / 4001000 | TPS 37.8143 | ETA 00:11:22
Time 19:54:20 | Step 3975585 / 4001000 | TPS 37.8138 | ETA 00:11:12
Time 19:54:30 | Step 3975964 / 4001000 | TPS 37.8187 | ETA 00:11:02
Time 19:54:40 | Step 3976343 / 4001000 | TPS 37.81 | ETA 00:10:52
Time 19:54:51 | Step 3976722 / 4001000 | TPS 37.8096 | ETA 00:10:42
Time 19:55:01 | Step 3977101 / 4001000 | TPS 37.8114 | ETA 00:10:32
Time 19:55:11 | Step 3977480 / 4001000 | TPS 37.814 | ETA 00:10:21
Time 19:55:21 | Step 3977858 / 4001000 | TPS 37.7939 | ETA 00:10:12
Time 19:55:31 | Step 3978234 / 4001000 | TPS 37.5828 | ETA 00:10:05
Time 19:55:41 | Step 3978613 / 4001000 | TPS 37.8074 | ETA 00:09:52
Time 19:55:51 | Step 3978994 / 4001000 | TPS 38.0265 | ETA 00:09:38
Time 19:56:01 | Step 3979373 / 4001000 | TPS 37.8077 | ETA 00:09:32
Time 19:56:11 | Step 3979749 / 4001000 | TPS 37.5849 | ETA 00:09:25
Time 19:56:21 | Step 3980128 / 4001000 | TPS 37.8106 | ETA 00:09:12
Time 19:56:31 | Step 3980507 / 4001000 | TPS 37.8068 | ETA 00:09:02
Time 19:56:41 | Step 3980886 / 4001000 | TPS 37.8127 | ETA 00:08:51
Time 19:56:51 | Step 3981265 / 4001000 | TPS 37.8069 | ETA 00:08:41
Time 19:57:01 | Step 3981644 / 4001000 | TPS 37.8062 | ETA 00:08:31
Time 19:57:11 | Step 3982023 / 4001000 | TPS 37.8053 | ETA 00:08:21
Time 19:57:21 | Step 3982403 / 4001000 | TPS 37.8128 | ETA 00:08:11
Time 19:57:31 | Step 3982782 / 4001000 | TPS 37.8102 | ETA 00:08:01
Time 19:57:41 | Step 3983161 / 4001000 | TPS 37.8075 | ETA 00:07:51
Time 19:57:51 | Step 3983539 / 4001000 | TPS 37.7974 | ETA 00:07:41
Time 19:58:01 | Step 3983918 / 4001000 | TPS 37.8083 | ETA 00:07:31
Time 19:58:11 | Step 3984296 / 4001000 | TPS 37.7992 | ETA 00:07:21
Time 19:58:21 | Step 3984674 / 4001000 | TPS 37.7979 | ETA 00:07:11
Time 19:58:31 | Step 3985052 / 4001000 | TPS 37.7971 | ETA 00:07:01
Time 19:58:41 | Step 3985430 / 4001000 | TPS 37.789 | ETA 00:06:52
Time 19:58:51 | Step 3985811 / 4001000 | TPS 38.025 | ETA 00:06:39
Time 19:59:01 | Step 3986187 / 4001000 | TPS 37.5726 | ETA 00:06:34
Time 19:59:11 | Step 3986565 / 4001000 | TPS 37.7979 | ETA 00:06:21
Time 19:59:21 | Step 3986946 / 4001000 | TPS 38.0276 | ETA 00:06:09
Time 19:59:31 | Step 3987322 / 4001000 | TPS 37.5704 | ETA 00:06:04
Time 19:59:41 | Step 3987703 / 4001000 | TPS 38.0193 | ETA 00:05:49
Time 19:59:51 | Step 3988081 / 4001000 | TPS 37.7924 | ETA 00:05:41
Time 20:00:01 | Step 3988459 / 4001000 | TPS 37.7988 | ETA 00:05:31
Time 20:00:11 | Step 3988837 / 4001000 | TPS 37.7981 | ETA 00:05:21
Time 20:00:21 | Step 3989215 / 4001000 | TPS 37.786 | ETA 00:05:11
Time 20:00:31 | Step 3989593 / 4001000 | TPS 37.7933 | ETA 00:05:01
Time 20:00:41 | Step 3989971 / 4001000 | TPS 37.7937 | ETA 00:04:51
Time 20:00:51 | Step 3990352 / 4001000 | TPS 38.0158 | ETA 00:04:40
Time 20:01:01 | Step 3990730 / 4001000 | TPS 37.7894 | ETA 00:04:31
Time 20:01:11 | Step 3991108 / 4001000 | TPS 37.789 | ETA 00:04:21
Time 20:01:21 | Step 3991486 / 4001000 | TPS 37.7958 | ETA 00:04:11
Time 20:01:31 | Step 3991864 / 4001000 | TPS 37.7916 | ETA 00:04:01
Time 20:01:41 | Step 3992245 / 4001000 | TPS 37.794 | ETA 00:03:51
Time 20:01:51 | Step 3992626 / 4001000 | TPS 38.0131 | ETA 00:03:40
Time 20:02:01 | Step 3993004 / 4001000 | TPS 37.7896 | ETA 00:03:31
Time 20:02:11 | Step 3993382 / 4001000 | TPS 37.7938 | ETA 00:03:21
Time 20:02:21 | Step 3993760 / 4001000 | TPS 37.7889 | ETA 00:03:11
Time 20:02:31 | Step 3994138 / 4001000 | TPS 37.7873 | ETA 00:03:01
Time 20:02:41 | Step 3994519 / 4001000 | TPS 38.015 | ETA 00:02:50
Time 20:02:51 | Step 3994897 / 4001000 | TPS 37.7878 | ETA 00:02:41
Time 20:03:01 | Step 3995275 / 4001000 | TPS 37.785 | ETA 00:02:31
Time 20:03:11 | Step 3995653 / 4001000 | TPS 37.7837 | ETA 00:02:21
Time 20:03:21 | Step 3996034 / 4001000 | TPS 38.0095 | ETA 00:02:10
Time 20:03:31 | Step 3996412 / 4001000 | TPS 37.7883 | ETA 00:02:01
Time 20:03:41 | Step 3996793 / 4001000 | TPS 38.0082 | ETA 00:01:50
Time 20:03:51 | Step 3997171 / 4001000 | TPS 37.7821 | ETA 00:01:41
Time 20:04:01 | Step 3997549 / 4001000 | TPS 37.7808 | ETA 00:01:31
Time 20:04:11 | Step 3997930 / 4001000 | TPS 38.0097 | ETA 00:01:20
Time 20:04:21 | Step 3998308 / 4001000 | TPS 37.7784 | ETA 00:01:11
Time 20:04:31 | Step 3998689 / 4001000 | TPS 38.0057 | ETA 00:01:00
Time 20:04:41 | Step 3999070 / 4001000 | TPS 38.0062 | ETA 00:00:50
Time 20:04:51 | Step 3999451 / 4001000 | TPS 38.0103 | ETA 00:00:40
Time 20:05:01 | Step 3999829 / 4001000 | TPS 37.7794 | ETA 00:00:30
Time 20:05:11 | Step 4000210 / 4001000 | TPS 38.0029 | ETA 00:00:20
Time 20:05:21 | Step 4000588 / 4001000 | TPS 37.7724 | ETA 00:00:10
Time 20:05:31 | Step 4000969 / 4001000 | TPS 38.0084 | ETA 00:00:00
Time 20:05:32 | Step 4001000 / 4001000 | TPS 38.2164 | ETA 00:00:00
Average TPS: 41.7827
---------
-- Neighborlist stats:
30406 normal updates / 1 forced updates / 0 dangerous updates
n_neigh_min: 0 / n_neigh_max: 298 / n_neigh_avg: 245.159
shortest rebuild period: 36
-- Cell list stats:
Dimension: 25, 25, 28
n_min    : 0 / n_max: 77 / n_avg: 14.2857
** run complete **
benchmark.py:035  |          hoomd.run(steps, limit_hours=limit_hours);
** starting run **
Time 20:05:42 | Step 4001379 / 4071000 | TPS 37.8039 | ETA 00:30:41
notice(2): Ending run at time step 4001758 as 0.00555556 hours have passed
Time 20:05:52 | Step 4001758 / 4071000 | TPS 37.9921 | ETA 00:30:22
Average TPS: 37.8976
---------
-- Neighborlist stats:
2 normal updates / 1 forced updates / 0 dangerous updates
n_neigh_min: 0 / n_neigh_max: 299 / n_neigh_avg: 245.156
shortest rebuild period: 99
-- Cell list stats:
Dimension: 25, 25, 28
n_min    : 0 / n_max: 77 / n_avg: 14.2857
** run complete **
benchmark.py:035  |          hoomd.run(steps, limit_hours=limit_hours);
** starting run **
Time 20:06:02 | Step 4002136 / 4071758 | TPS 37.7905 | ETA 00:30:42
notice(2): Ending run at time step 4002514 as 0.00555556 hours have passed
Time 20:06:12 | Step 4002514 / 4071758 | TPS 37.7735 | ETA 00:30:33
Average TPS: 37.782
---------
-- Neighborlist stats:
3 normal updates / 1 forced updates / 0 dangerous updates
n_neigh_min: 0 / n_neigh_max: 300 / n_neigh_avg: 245.166
shortest rebuild period: 99
-- Cell list stats:
Dimension: 25, 25, 28
n_min    : 0 / n_max: 76 / n_avg: 14.2857
** run complete **
benchmark.py:035  |          hoomd.run(steps, limit_hours=limit_hours);
** starting run **
Time 20:06:22 | Step 4002893 / 4072514 | TPS 37.8185 | ETA 00:30:40
notice(2): Ending run at time step 4003268 as 0.00555556 hours have passed
Time 20:06:32 | Step 4003268 / 4072514 | TPS 37.5693 | ETA 00:30:43
Average TPS: 37.6941
---------
-- Neighborlist stats:
4 normal updates / 1 forced updates / 0 dangerous updates
n_neigh_min: 0 / n_neigh_max: 298 / n_neigh_avg: 245.185
shortest rebuild period: 99
-- Cell list stats:
Dimension: 25, 25, 28
n_min    : 0 / n_max: 77 / n_avg: 14.2857
** run complete **
benchmark.py:035  |          hoomd.run(steps, limit_hours=limit_hours);
** starting run **
Time 20:06:42 | Step 4003644 / 4073268 | TPS 37.556 | ETA 00:30:53
notice(2): Ending run at time step 4004024 as 0.00555556 hours have passed
Time 20:06:52 | Step 4004024 / 4073268 | TPS 38.0026 | ETA 00:30:22
Average TPS: 37.7791
---------
-- Neighborlist stats:
3 normal updates / 1 forced updates / 0 dangerous updates
n_neigh_min: 0 / n_neigh_max: 299 / n_neigh_avg: 245.169
shortest rebuild period: 99
-- Cell list stats:
Dimension: 25, 25, 28
n_min    : 0 / n_max: 78 / n_avg: 14.2857
** run complete **
Hours to complete 10e6 steps: 73.5091348667
benchmark.py:099  |  meta.dump_metadata(filename = workspace+"/metadata.json", user = {'mps': ptps, 'tps': tps});
----------------------------------------
PBS job ended
Begin PBS Epilogue Sat Feb 10 11:02:44 CST 2018 1518282164
JobID: 22520803.qsched03.quest.it.northwestern.edu
Session ID:			2390
Resources Used:			cput=20:07:07,energy_used=0,mem=687472kb,vmem=157463116kb,walltime=20:07:06
Job exit value:			0
----------------------------------------
