----------------------------------------
PBS: Begin PBS Prologue Thu Feb  8 17:58:50 CST 2018 1518134330
PBS: Job ID:		22515791.qsched03.quest.it.northwestern.edu
PBS: Username:		jam119
PBS: Group:		jam119
PBS: Executing queue:     buyin
PBS: Job name:		test-bench
PBS: Account:		b1030
----------------------------------------
   The following variables are not
   guaranteed to be the same in 
   prologue and the job run script  
----------------------------------------
PBS: Temporary Dir($TMPDIR):	/tmp/22515791.qsched03.quest.it.northwestern.edu
PBS: Master Node($PBS_MSHOST):		qgpu6004
PBS: node file($PBS_NODEFILE):  /hpc/opt/torque6/nodes/qgpu6004/aux//22515791.qsched03.quest.it.northwestern.edu
PBS: PATH (in prologue) : /bin:/usr/bin
PBS: WORKDIR ($PBS_O_WORKDIR) is:  /projects/b1021/Jaime_pmf/test-wall/addatomic
----------------------------------------
PBS: End PBS Prologue Thu Feb  8 17:58:50 CST 2018 1518134330
HOOMD-blue v2.1.8-722-gde67388 CUDA (7.5) SINGLE SSE SSE2 
Compiled: 02/07/2018
Copyright 2009-2017 The Regents of the University of Michigan.
-----
You are using HOOMD-blue. Please cite the following:
* J A Anderson, C D Lorenz, and A Travesset. "General purpose molecular dynamics
  simulations fully implemented on graphics processing units", Journal of
  Computational Physics 227 (2008) 5342--5359
* J Glaser, T D Nguyen, J A Anderson, P Liu, F Spiga, J A Millan, D C Morse, and
  S C Glotzer. "Strong scaling of general-purpose molecular dynamics simulations
  on GPUs", Computer Physics Communications 192 (2015) 97--107
-----
HOOMD-blue is running on the following GPU(s):
 [0]             Tesla K80  13 SM_3.7 @ 0.823 GHz, 11439 MiB DRAM
benchmark.py:029  |  system = deprecated.init.read_xml("54000.xml")
notice(2): Reading 54000.xml...
notice(2): --- hoomd_xml file read summary
notice(2): 54000 positions at timestep 0
notice(2): 54000 masses
notice(2): 54000 diameters
notice(2): 2 particle types
notice(2): 54000 particle body values
notice(2): 54000 charges
notice(2): Group "all" created containing 54000 particles
benchmark.py:030  |  group_A = group.type(name='a-particles', type = 'A')
notice(2): Group "a-particles" created containing 53999 particles
benchmark.py:033  |  nl =nlist.cell()
benchmark.py:034  |  c.sorter.disable()
benchmark.py:035  |  slj= pair.slj(r_cut = 3.5, nlist=nl)
notice(2): Notice: slj set d_max=1.0
benchmark.py:036  |  slj.set_params(mode="shift")
pair.py:801  |          pair.set_params(self, mode=mode);
benchmark.py:037  |  slj.pair_coeff.set('A','A' , epsilon=1.0, sigma=1.0 )
benchmark.py:038  |  slj.pair_coeff.set('A','B' , epsilon=0.0, sigma=1.0 )
benchmark.py:039  |  slj.pair_coeff.set('B','B' , epsilon=0.0, sigma=1.0 )
benchmark.py:049  |  wall_force_slj=wall.lj(walls, r_cut=4.0,active_planes=[0,1])
benchmark.py:050  |  wall_force_slj.force_coeff.set('A', epsilon= 1.5,r_cut=4,sigma=sigma,r_extrap = 0.05)
benchmark.py:051  |  wall_force_slj.force_coeff.set('B', epsilon= 0,r_cut=4,sigma=sigma,r_extrap = 0.05)
benchmark.py:063  |  logger = analyze.log(quantities=['temperature' , 'potential_energy', 'kinetic_energy'],
												 period=5e2, filename='log.log', overwrite=True)
benchmark.py:070  |  integrate.mode_standard(dt=0.001)
benchmark.py:073  |  integrator = integrate.nve(group_A , limit = 0.0001)
benchmark.py:074  |  zero = update.zero_momentum(period =100)
benchmark.py:076  |  run(1e3)
notice(2): -- Neighborlist exclusion statistics -- :
notice(2): Particles with 0 exclusions             : 54000
notice(2): Neighbors included by diameter          : yes
notice(2): Neighbors excluded when in the same body: no
** starting run **
Time 00:00:02 | Step 1000 / 1000 | TPS 538.338 | ETA 00:00:00
Average TPS: 538.274
---------
-- Neighborlist stats:
0 normal updates / 0 forced updates / 0 dangerous updates
n_neigh_min: 33 / n_neigh_max: 58 / n_neigh_avg: 56.6
shortest rebuild period: 100
-- Cell list stats:
Dimension: 15, 15, 17
n_min    : 0 / n_max: 20 / n_avg: 14.1176
** run complete **
benchmark.py:077  |  integrator.disable()
benchmark.py:078  |  zero.disable()
benchmark.py:085  |  integrator = integrate.nvt(group=group_A , tau = 0.65 , kT = 0.001)
benchmark.py:086  |  integrator.set_params(kT=variant.linear_interp(points=[(0, logger.query('temperature')), (2e6, 0.75)]))
benchmark.py:088  |  run(2e6)
** starting run **
Time 00:00:12 | Step 7866 / 2001000 | TPS 686.584 | ETA 00:48:22
Time 00:00:22 | Step 14620 / 2001000 | TPS 675.337 | ETA 00:49:01
Time 00:00:32 | Step 21264 / 2001000 | TPS 664.393 | ETA 00:49:39
Time 00:00:42 | Step 27540 / 2001000 | TPS 627.596 | ETA 00:52:24
Time 00:00:52 | Step 33459 / 2001000 | TPS 591.828 | ETA 00:55:24
Time 00:01:02 | Step 39010 / 2001000 | TPS 555.081 | ETA 00:58:54
Time 00:01:12 | Step 44211 / 2001000 | TPS 520.017 | ETA 01:02:42
Time 00:01:22 | Step 49218 / 2001000 | TPS 500.608 | ETA 01:04:58
Time 00:01:32 | Step 54016 / 2001000 | TPS 479.725 | ETA 01:07:38
Time 00:01:42 | Step 58666 / 2001000 | TPS 464.983 | ETA 01:09:37
Time 00:01:52 | Step 63195 / 2001000 | TPS 452.896 | ETA 01:11:18
Time 00:02:02 | Step 67635 / 2001000 | TPS 443.975 | ETA 01:12:34
Time 00:02:12 | Step 72017 / 2001000 | TPS 438.164 | ETA 01:13:22
Time 00:02:22 | Step 76324 / 2001000 | TPS 430.652 | ETA 01:14:29
Time 00:02:32 | Step 80563 / 2001000 | TPS 423.811 | ETA 01:15:31
Time 00:02:42 | Step 84726 / 2001000 | TPS 416.297 | ETA 01:16:43
Time 00:02:52 | Step 88828 / 2001000 | TPS 410.127 | ETA 01:17:42
Time 00:03:02 | Step 92878 / 2001000 | TPS 404.942 | ETA 01:18:32
Time 00:03:12 | Step 96885 / 2001000 | TPS 400.38 | ETA 01:19:15
Time 00:03:22 | Step 100862 / 2001000 | TPS 397.646 | ETA 01:19:38
Time 00:03:32 | Step 104714 / 2001000 | TPS 385.154 | ETA 01:22:03
Time 00:03:42 | Step 108623 / 2001000 | TPS 390.802 | ETA 01:20:42
Time 00:03:52 | Step 112503 / 2001000 | TPS 387.983 | ETA 01:21:07
Time 00:04:02 | Step 116360 / 2001000 | TPS 385.651 | ETA 01:21:26
Time 00:04:12 | Step 120186 / 2001000 | TPS 382.506 | ETA 01:21:57
Time 00:04:22 | Step 124004 / 2001000 | TPS 381.754 | ETA 01:21:56
Time 00:04:32 | Step 127803 / 2001000 | TPS 379.838 | ETA 01:22:11
Time 00:04:42 | Step 131575 / 2001000 | TPS 377.19 | ETA 01:22:36
Time 00:04:52 | Step 135325 / 2001000 | TPS 374.952 | ETA 01:22:55
Time 00:05:02 | Step 139052 / 2001000 | TPS 372.609 | ETA 01:23:17
Time 00:05:12 | Step 142762 / 2001000 | TPS 370.966 | ETA 01:23:29
Time 00:05:22 | Step 146460 / 2001000 | TPS 369.791 | ETA 01:23:35
Time 00:05:32 | Step 150158 / 2001000 | TPS 369.748 | ETA 01:23:25
Time 00:05:42 | Step 153850 / 2001000 | TPS 369.164 | ETA 01:23:23
Time 00:05:52 | Step 157534 / 2001000 | TPS 368.311 | ETA 01:23:25
Time 00:06:02 | Step 161202 / 2001000 | TPS 366.704 | ETA 01:23:37
Time 00:06:12 | Step 164858 / 2001000 | TPS 365.581 | ETA 01:23:42
Time 00:06:22 | Step 168498 / 2001000 | TPS 363.926 | ETA 01:23:55
Time 00:06:32 | Step 172130 / 2001000 | TPS 363.12 | ETA 01:23:56
Time 00:06:42 | Step 175750 / 2001000 | TPS 361.929 | ETA 01:24:03
Time 00:06:52 | Step 179353 / 2001000 | TPS 360.226 | ETA 01:24:16
Time 00:07:02 | Step 182949 / 2001000 | TPS 359.565 | ETA 01:24:16
Time 00:07:12 | Step 186539 / 2001000 | TPS 358.92 | ETA 01:24:15
Time 00:07:22 | Step 190134 / 2001000 | TPS 359.413 | ETA 01:23:58
Time 00:07:32 | Step 193714 / 2001000 | TPS 357.978 | ETA 01:24:08
Time 00:07:42 | Step 197288 / 2001000 | TPS 357.359 | ETA 01:24:07
Time 00:07:52 | Step 200855 / 2001000 | TPS 356.659 | ETA 01:24:07
Time 00:08:02 | Step 204332 / 2001000 | TPS 347.635 | ETA 01:26:08
Time 00:08:12 | Step 207891 / 2001000 | TPS 355.895 | ETA 01:23:58
Time 00:08:22 | Step 211449 / 2001000 | TPS 355.772 | ETA 01:23:50
Time 00:08:32 | Step 215001 / 2001000 | TPS 355.099 | ETA 01:23:49
Time 00:08:42 | Step 218554 / 2001000 | TPS 355.258 | ETA 01:23:37
Time 00:08:52 | Step 222099 / 2001000 | TPS 354.484 | ETA 01:23:38
Time 00:09:02 | Step 225639 / 2001000 | TPS 353.932 | ETA 01:23:36
Time 00:09:12 | Step 229169 / 2001000 | TPS 352.951 | ETA 01:23:40
Time 00:09:22 | Step 232698 / 2001000 | TPS 352.816 | ETA 01:23:31
Time 00:09:32 | Step 236231 / 2001000 | TPS 353.254 | ETA 01:23:15
Time 00:09:42 | Step 239759 / 2001000 | TPS 352.75 | ETA 01:23:12
Time 00:09:52 | Step 243290 / 2001000 | TPS 353.015 | ETA 01:22:59
Time 00:10:02 | Step 246806 / 2001000 | TPS 351.574 | ETA 01:23:09
Time 00:10:12 | Step 250323 / 2001000 | TPS 351.637 | ETA 01:22:58
Time 00:10:22 | Step 253836 / 2001000 | TPS 351.238 | ETA 01:22:54
Time 00:10:32 | Step 257346 / 2001000 | TPS 350.954 | ETA 01:22:48
Time 00:10:42 | Step 260863 / 2001000 | TPS 351.603 | ETA 01:22:29
Time 00:10:52 | Step 264379 / 2001000 | TPS 351.503 | ETA 01:22:20
Time 00:11:02 | Step 267887 / 2001000 | TPS 350.715 | ETA 01:22:21
Time 00:11:12 | Step 271400 / 2001000 | TPS 351.23 | ETA 01:22:04
Time 00:11:22 | Step 274909 / 2001000 | TPS 350.88 | ETA 01:21:59
Time 00:11:32 | Step 278423 / 2001000 | TPS 351.341 | ETA 01:21:42
Time 00:11:42 | Step 281935 / 2001000 | TPS 351.174 | ETA 01:21:35
Time 00:11:52 | Step 285433 / 2001000 | TPS 349.778 | ETA 01:21:44
Time 00:12:02 | Step 288936 / 2001000 | TPS 350.299 | ETA 01:21:27
Time 00:12:12 | Step 292440 / 2001000 | TPS 350.392 | ETA 01:21:16
Time 00:12:22 | Step 295939 / 2001000 | TPS 349.88 | ETA 01:21:13
Time 00:12:32 | Step 299442 / 2001000 | TPS 350.246 | ETA 01:20:58
Time 00:12:42 | Step 302926 / 2001000 | TPS 348.353 | ETA 01:21:14
Time 00:12:52 | Step 306623 / 2001000 | TPS 369.633 | ETA 01:16:23
Time 00:13:02 | Step 310320 / 2001000 | TPS 369.654 | ETA 01:16:13
Time 00:13:12 | Step 314021 / 2001000 | TPS 370.047 | ETA 01:15:58
Time 00:13:22 | Step 317714 / 2001000 | TPS 369.225 | ETA 01:15:58
Time 00:13:32 | Step 321399 / 2001000 | TPS 368.432 | ETA 01:15:58
Time 00:13:42 | Step 325080 / 2001000 | TPS 368.006 | ETA 01:15:54
Time 00:13:52 | Step 328740 / 2001000 | TPS 365.909 | ETA 01:16:10
Time 00:14:02 | Step 332381 / 2001000 | TPS 364.038 | ETA 01:16:23
Time 00:14:12 | Step 336009 / 2001000 | TPS 362.707 | ETA 01:16:30
Time 00:14:22 | Step 339640 / 2001000 | TPS 363.08 | ETA 01:16:15
Time 00:14:32 | Step 343278 / 2001000 | TPS 363.741 | ETA 01:15:57
Time 00:14:42 | Step 346921 / 2001000 | TPS 364.232 | ETA 01:15:41
Time 00:14:52 | Step 350584 / 2001000 | TPS 366.273 | ETA 01:15:05
Time 00:15:02 | Step 354259 / 2001000 | TPS 367.479 | ETA 01:14:41
Time 00:15:12 | Step 357937 / 2001000 | TPS 367.78 | ETA 01:14:27
Time 00:15:22 | Step 361616 / 2001000 | TPS 367.818 | ETA 01:14:17
Time 00:15:32 | Step 365300 / 2001000 | TPS 368.319 | ETA 01:14:00
Time 00:15:42 | Step 368980 / 2001000 | TPS 367.956 | ETA 01:13:55
Time 00:15:52 | Step 372664 / 2001000 | TPS 368.332 | ETA 01:13:40
Time 00:16:02 | Step 376346 / 2001000 | TPS 368.151 | ETA 01:13:33
Time 00:16:12 | Step 380027 / 2001000 | TPS 368.033 | ETA 01:13:24
Time 00:16:22 | Step 383703 / 2001000 | TPS 367.541 | ETA 01:13:20
Time 00:16:32 | Step 387373 / 2001000 | TPS 366.969 | ETA 01:13:17
Time 00:16:42 | Step 391042 / 2001000 | TPS 366.863 | ETA 01:13:08
Time 00:16:52 | Step 394703 / 2001000 | TPS 366.051 | ETA 01:13:08
Time 00:17:02 | Step 398339 / 2001000 | TPS 363.565 | ETA 01:13:28
Time 00:17:12 | Step 401857 / 2001000 | TPS 351.792 | ETA 01:15:45
Time 00:17:22 | Step 405456 / 2001000 | TPS 359.816 | ETA 01:13:54
Time 00:17:32 | Step 409039 / 2001000 | TPS 358.265 | ETA 01:14:03
Time 00:17:42 | Step 412631 / 2001000 | TPS 359.145 | ETA 01:13:42
Time 00:17:52 | Step 416225 / 2001000 | TPS 359.345 | ETA 01:13:30
Time 00:18:02 | Step 419831 / 2001000 | TPS 360.531 | ETA 01:13:05
Time 00:18:12 | Step 423449 / 2001000 | TPS 361.723 | ETA 01:12:41
Time 00:18:22 | Step 427057 / 2001000 | TPS 360.694 | ETA 01:12:43
Time 00:18:32 | Step 430671 / 2001000 | TPS 361.363 | ETA 01:12:25
Time 00:18:42 | Step 434288 / 2001000 | TPS 361.604 | ETA 01:12:12
Time 00:18:52 | Step 437904 / 2001000 | TPS 361.588 | ETA 01:12:02
Time 00:19:02 | Step 441532 / 2001000 | TPS 362.799 | ETA 01:11:38
Time 00:19:12 | Step 445157 / 2001000 | TPS 362.478 | ETA 01:11:32
Time 00:19:22 | Step 448785 / 2001000 | TPS 362.781 | ETA 01:11:18
Time 00:19:32 | Step 452410 / 2001000 | TPS 362.486 | ETA 01:11:12
Time 00:19:42 | Step 456033 / 2001000 | TPS 362.216 | ETA 01:11:05
Time 00:19:52 | Step 459648 / 2001000 | TPS 361.455 | ETA 01:11:04
Time 00:20:02 | Step 463277 / 2001000 | TPS 362.874 | ETA 01:10:37
Time 00:20:12 | Step 466900 / 2001000 | TPS 362.222 | ETA 01:10:35
Time 00:20:22 | Step 470522 / 2001000 | TPS 362.189 | ETA 01:10:25
Time 00:20:32 | Step 474140 / 2001000 | TPS 361.711 | ETA 01:10:21
Time 00:20:42 | Step 477759 / 2001000 | TPS 361.864 | ETA 01:10:09
Time 00:20:52 | Step 481386 / 2001000 | TPS 362.624 | ETA 01:09:50
Time 00:21:02 | Step 485010 / 2001000 | TPS 362.343 | ETA 01:09:43
Time 00:21:12 | Step 488627 / 2001000 | TPS 361.668 | ETA 01:09:41
Time 00:21:22 | Step 492248 / 2001000 | TPS 362.028 | ETA 01:09:27
Time 00:21:32 | Step 495864 / 2001000 | TPS 361.527 | ETA 01:09:23
Time 00:21:42 | Step 499485 / 2001000 | TPS 362.054 | ETA 01:09:07
Time 00:21:52 | Step 503001 / 2001000 | TPS 351.561 | ETA 01:11:00
Time 00:22:02 | Step 506625 / 2001000 | TPS 362.337 | ETA 01:08:44
Time 00:22:12 | Step 510251 / 2001000 | TPS 362.531 | ETA 01:08:32
Time 00:22:22 | Step 513872 / 2001000 | TPS 362.006 | ETA 01:08:28
Time 00:22:33 | Step 517496 / 2001000 | TPS 362.313 | ETA 01:08:14
Time 00:22:43 | Step 521113 / 2001000 | TPS 361.602 | ETA 01:08:12
Time 00:22:53 | Step 524732 / 2001000 | TPS 361.846 | ETA 01:07:59
Time 00:23:03 | Step 528351 / 2001000 | TPS 361.899 | ETA 01:07:49
Time 00:23:13 | Step 531971 / 2001000 | TPS 361.931 | ETA 01:07:38
Time 00:23:23 | Step 535588 / 2001000 | TPS 361.524 | ETA 01:07:33
Time 00:23:33 | Step 539207 / 2001000 | TPS 361.848 | ETA 01:07:19
Time 00:23:43 | Step 542825 / 2001000 | TPS 361.8 | ETA 01:07:10
Time 00:23:53 | Step 546446 / 2001000 | TPS 362.01 | ETA 01:06:57
Time 00:24:03 | Step 550058 / 2001000 | TPS 361.111 | ETA 01:06:57
Time 00:24:13 | Step 553670 / 2001000 | TPS 361.158 | ETA 01:06:47
Time 00:24:23 | Step 557285 / 2001000 | TPS 361.5 | ETA 01:06:33
Time 00:24:33 | Step 560902 / 2001000 | TPS 361.607 | ETA 01:06:22
Time 00:24:43 | Step 564517 / 2001000 | TPS 361.41 | ETA 01:06:14
Time 00:24:53 | Step 568134 / 2001000 | TPS 361.647 | ETA 01:06:02
Time 00:25:03 | Step 571744 / 2001000 | TPS 360.933 | ETA 01:05:59
Time 00:25:13 | Step 575357 / 2001000 | TPS 361.248 | ETA 01:05:46
Time 00:25:23 | Step 578969 / 2001000 | TPS 361.153 | ETA 01:05:37
Time 00:25:33 | Step 582582 / 2001000 | TPS 361.205 | ETA 01:05:26
Time 00:25:43 | Step 586193 / 2001000 | TPS 361.097 | ETA 01:05:18
Time 00:25:53 | Step 589807 / 2001000 | TPS 361.357 | ETA 01:05:05
Time 00:26:03 | Step 593420 / 2001000 | TPS 361.269 | ETA 01:04:56
Time 00:26:13 | Step 597036 / 2001000 | TPS 361.6 | ETA 01:04:42
Time 00:26:23 | Step 600646 / 2001000 | TPS 360.915 | ETA 01:04:40
Time 00:26:33 | Step 604154 / 2001000 | TPS 350.762 | ETA 01:06:22
Time 00:26:43 | Step 607767 / 2001000 | TPS 361.299 | ETA 01:04:16
Time 00:26:53 | Step 611379 / 2001000 | TPS 361.113 | ETA 01:04:08
Time 00:27:03 | Step 614985 / 2001000 | TPS 360.565 | ETA 01:04:04
Time 00:27:13 | Step 618587 / 2001000 | TPS 360.133 | ETA 01:03:58
Time 00:27:23 | Step 622186 / 2001000 | TPS 359.896 | ETA 01:03:51
Time 00:27:33 | Step 625778 / 2001000 | TPS 359.123 | ETA 01:03:49
Time 00:27:43 | Step 629364 / 2001000 | TPS 358.528 | ETA 01:03:45
Time 00:27:53 | Step 632930 / 2001000 | TPS 356.593 | ETA 01:03:56
Time 00:28:03 | Step 636487 / 2001000 | TPS 355.648 | ETA 01:03:56
Time 00:28:13 | Step 640044 / 2001000 | TPS 355.67 | ETA 01:03:46
Time 00:28:23 | Step 643601 / 2001000 | TPS 355.653 | ETA 01:03:36
Time 00:28:33 | Step 647173 / 2001000 | TPS 357.146 | ETA 01:03:10
Time 00:28:43 | Step 650760 / 2001000 | TPS 358.661 | ETA 01:02:44
Time 00:28:53 | Step 654365 / 2001000 | TPS 360.467 | ETA 01:02:15
Time 00:29:03 | Step 657962 / 2001000 | TPS 359.688 | ETA 01:02:13
Time 00:29:13 | Step 661574 / 2001000 | TPS 361.129 | ETA 01:01:48
Time 00:29:23 | Step 665182 / 2001000 | TPS 360.73 | ETA 01:01:43
Time 00:29:33 | Step 668791 / 2001000 | TPS 360.813 | ETA 01:01:32
Time 00:29:43 | Step 672399 / 2001000 | TPS 360.754 | ETA 01:01:22
Time 00:29:53 | Step 676003 / 2001000 | TPS 360.359 | ETA 01:01:16
Time 00:30:03 | Step 679607 / 2001000 | TPS 360.365 | ETA 01:01:06
Time 00:30:13 | Step 683190 / 2001000 | TPS 358.016 | ETA 01:01:20
Time 00:30:23 | Step 686785 / 2001000 | TPS 359.417 | ETA 01:00:56
Time 00:30:33 | Step 690366 / 2001000 | TPS 358.077 | ETA 01:01:00
Time 00:30:43 | Step 693934 / 2001000 | TPS 356.722 | ETA 01:01:04
Time 00:30:53 | Step 697489 / 2001000 | TPS 355.496 | ETA 01:01:06
Time 00:31:03 | Step 701038 / 2001000 | TPS 354.843 | ETA 01:01:03
Time 00:31:13 | Step 704478 / 2001000 | TPS 343.999 | ETA 01:02:48
Time 00:31:23 | Step 708025 / 2001000 | TPS 354.653 | ETA 01:00:45
Time 00:31:33 | Step 711570 / 2001000 | TPS 354.472 | ETA 01:00:37
Time 00:31:43 | Step 715129 / 2001000 | TPS 355.888 | ETA 01:00:13
Time 00:31:53 | Step 718700 / 2001000 | TPS 357.029 | ETA 00:59:51
Time 00:32:03 | Step 722284 / 2001000 | TPS 358.318 | ETA 00:59:28
Time 00:32:13 | Step 725876 / 2001000 | TPS 359.168 | ETA 00:59:10
Time 00:32:23 | Step 729469 / 2001000 | TPS 359.27 | ETA 00:58:59
Time 00:32:33 | Step 733066 / 2001000 | TPS 359.693 | ETA 00:58:45
Time 00:32:43 | Step 736654 / 2001000 | TPS 358.779 | ETA 00:58:44
Time 00:32:53 | Step 740249 / 2001000 | TPS 359.433 | ETA 00:58:27
Time 00:33:03 | Step 743841 / 2001000 | TPS 359.143 | ETA 00:58:20
Time 00:33:13 | Step 747427 / 2001000 | TPS 358.57 | ETA 00:58:16
Time 00:33:23 | Step 750996 / 2001000 | TPS 356.861 | ETA 00:58:22
Time 00:33:33 | Step 754566 / 2001000 | TPS 356.933 | ETA 00:58:12
Time 00:33:43 | Step 758127 / 2001000 | TPS 356.065 | ETA 00:58:10
Time 00:33:53 | Step 761682 / 2001000 | TPS 355.497 | ETA 00:58:06
Time 00:34:03 | Step 765226 / 2001000 | TPS 354.372 | ETA 00:58:07
Time 00:34:13 | Step 768765 / 2001000 | TPS 353.844 | ETA 00:58:02
Time 00:34:23 | Step 772308 / 2001000 | TPS 354.269 | ETA 00:57:48
Time 00:34:33 | Step 775846 / 2001000 | TPS 353.789 | ETA 00:57:42
Time 00:34:43 | Step 779396 / 2001000 | TPS 354.996 | ETA 00:57:21
Time 00:34:53 | Step 782953 / 2001000 | TPS 355.698 | ETA 00:57:04
Time 00:35:03 | Step 786525 / 2001000 | TPS 357.17 | ETA 00:56:40
Time 00:35:13 | Step 790108 / 2001000 | TPS 358.261 | ETA 00:56:19
Time 00:35:23 | Step 793692 / 2001000 | TPS 358.305 | ETA 00:56:09
Time 00:35:33 | Step 797278 / 2001000 | TPS 358.566 | ETA 00:55:57
Time 00:35:43 | Step 800860 / 2001000 | TPS 358.116 | ETA 00:55:51
Time 00:35:53 | Step 804345 / 2001000 | TPS 348.43 | ETA 00:57:14
Time 00:36:03 | Step 807926 / 2001000 | TPS 358.034 | ETA 00:55:32
Time 00:36:13 | Step 811502 / 2001000 | TPS 357.573 | ETA 00:55:26
Time 00:36:23 | Step 815072 / 2001000 | TPS 356.973 | ETA 00:55:22
Time 00:36:33 | Step 818632 / 2001000 | TPS 355.996 | ETA 00:55:21
Time 00:36:43 | Step 822180 / 2001000 | TPS 354.762 | ETA 00:55:22
Time 00:36:53 | Step 825726 / 2001000 | TPS 354.533 | ETA 00:55:14
Time 00:37:03 | Step 829267 / 2001000 | TPS 354.073 | ETA 00:55:09
Time 00:37:13 | Step 832802 / 2001000 | TPS 353.427 | ETA 00:55:05
Time 00:37:23 | Step 836340 / 2001000 | TPS 353.742 | ETA 00:54:52
Time 00:37:33 | Step 839877 / 2001000 | TPS 353.695 | ETA 00:54:42
Time 00:37:43 | Step 843422 / 2001000 | TPS 354.435 | ETA 00:54:25
Time 00:37:53 | Step 846972 / 2001000 | TPS 354.909 | ETA 00:54:11
Time 00:38:03 | Step 850538 / 2001000 | TPS 356.522 | ETA 00:53:46
Time 00:38:13 | Step 854109 / 2001000 | TPS 357.054 | ETA 00:53:32
Time 00:38:23 | Step 857688 / 2001000 | TPS 357.882 | ETA 00:53:14
Time 00:38:33 | Step 861268 / 2001000 | TPS 357.949 | ETA 00:53:04
Time 00:38:43 | Step 864849 / 2001000 | TPS 358.028 | ETA 00:52:53
Time 00:38:53 | Step 868427 / 2001000 | TPS 357.756 | ETA 00:52:45
Time 00:39:03 | Step 871993 / 2001000 | TPS 356.515 | ETA 00:52:46
Time 00:39:13 | Step 875553 / 2001000 | TPS 355.996 | ETA 00:52:41
Time 00:39:23 | Step 879121 / 2001000 | TPS 356.465 | ETA 00:52:27
Time 00:39:33 | Step 882675 / 2001000 | TPS 355.353 | ETA 00:52:27
Time 00:39:43 | Step 886223 / 2001000 | TPS 354.794 | ETA 00:52:22
Time 00:39:53 | Step 889755 / 2001000 | TPS 353.19 | ETA 00:52:26
Time 00:40:03 | Step 893285 / 2001000 | TPS 352.967 | ETA 00:52:18
Time 00:40:13 | Step 896814 / 2001000 | TPS 352.861 | ETA 00:52:09
Time 00:40:23 | Step 900343 / 2001000 | TPS 352.856 | ETA 00:51:59
Time 00:40:33 | Step 903771 / 2001000 | TPS 342.74 | ETA 00:53:21
Time 00:40:43 | Step 907300 / 2001000 | TPS 352.868 | ETA 00:51:39
Time 00:40:53 | Step 910834 / 2001000 | TPS 353.005 | ETA 00:51:28
Time 00:41:03 | Step 914369 / 2001000 | TPS 353.467 | ETA 00:51:14
Time 00:41:13 | Step 917901 / 2001000 | TPS 353.131 | ETA 00:51:07
Time 00:41:23 | Step 921433 / 2001000 | TPS 353.194 | ETA 00:50:56
Time 00:41:33 | Step 924969 / 2001000 | TPS 353.557 | ETA 00:50:43
Time 00:41:43 | Step 928502 / 2001000 | TPS 353.23 | ETA 00:50:36
Time 00:41:53 | Step 932040 / 2001000 | TPS 353.775 | ETA 00:50:21
Time 00:42:03 | Step 935575 / 2001000 | TPS 353.433 | ETA 00:50:14
Time 00:42:13 | Step 939106 / 2001000 | TPS 353.046 | ETA 00:50:07
Time 00:42:23 | Step 942641 / 2001000 | TPS 353.459 | ETA 00:49:54
Time 00:42:33 | Step 946176 / 2001000 | TPS 353.413 | ETA 00:49:44
Time 00:42:43 | Step 949711 / 2001000 | TPS 353.488 | ETA 00:49:34
Time 00:42:53 | Step 953244 / 2001000 | TPS 353.208 | ETA 00:49:26
Time 00:43:03 | Step 956779 / 2001000 | TPS 353.494 | ETA 00:49:14
Time 00:43:13 | Step 960313 / 2001000 | TPS 353.309 | ETA 00:49:05
Time 00:43:23 | Step 963849 / 2001000 | TPS 353.562 | ETA 00:48:53
Time 00:43:33 | Step 967384 / 2001000 | TPS 353.461 | ETA 00:48:44
Time 00:43:43 | Step 970911 / 2001000 | TPS 352.685 | ETA 00:48:40
Time 00:43:53 | Step 974444 / 2001000 | TPS 353.215 | ETA 00:48:26
Time 00:44:03 | Step 977979 / 2001000 | TPS 353.44 | ETA 00:48:14
Time 00:44:13 | Step 981509 / 2001000 | TPS 352.932 | ETA 00:48:08
Time 00:44:23 | Step 985044 / 2001000 | TPS 353.432 | ETA 00:47:54
Time 00:44:33 | Step 988578 / 2001000 | TPS 353.308 | ETA 00:47:45
Time 00:44:43 | Step 992115 / 2001000 | TPS 353.621 | ETA 00:47:33
Time 00:44:53 | Step 995651 / 2001000 | TPS 353.6 | ETA 00:47:23
Time 00:45:03 | Step 999186 / 2001000 | TPS 353.2 | ETA 00:47:16
Time 00:45:13 | Step 1002711 / 2001000 | TPS 352.362 | ETA 00:47:13
Time 00:45:23 | Step 1006146 / 2001000 | TPS 343.445 | ETA 00:48:16
Time 00:45:33 | Step 1009671 / 2001000 | TPS 352.484 | ETA 00:46:52
Time 00:45:43 | Step 1013198 / 2001000 | TPS 352.636 | ETA 00:46:41
Time 00:45:53 | Step 1016720 / 2001000 | TPS 352.185 | ETA 00:46:34
Time 00:46:03 | Step 1020246 / 2001000 | TPS 352.553 | ETA 00:46:21
Time 00:46:13 | Step 1023768 / 2001000 | TPS 352.168 | ETA 00:46:14
Time 00:46:23 | Step 1027283 / 2001000 | TPS 351.409 | ETA 00:46:10
Time 00:46:33 | Step 1030778 / 2001000 | TPS 349.457 | ETA 00:46:16
Time 00:46:43 | Step 1034271 / 2001000 | TPS 349.214 | ETA 00:46:08
Time 00:46:53 | Step 1037775 / 2001000 | TPS 350.361 | ETA 00:45:49
Time 00:47:03 | Step 1041293 / 2001000 | TPS 351.786 | ETA 00:45:28
Time 00:47:13 | Step 1044814 / 2001000 | TPS 352.076 | ETA 00:45:15
Time 00:47:23 | Step 1048336 / 2001000 | TPS 352.137 | ETA 00:45:05
Time 00:47:33 | Step 1051858 / 2001000 | TPS 352.153 | ETA 00:44:55
Time 00:47:43 | Step 1055320 / 2001000 | TPS 346.134 | ETA 00:45:32
Time 00:47:53 | Step 1058800 / 2001000 | TPS 347.812 | ETA 00:45:08
Time 00:48:03 | Step 1062275 / 2001000 | TPS 347.468 | ETA 00:45:01
Time 00:48:13 | Step 1065749 / 2001000 | TPS 347.348 | ETA 00:44:52
Time 00:48:23 | Step 1069272 / 2001000 | TPS 352.219 | ETA 00:44:05
Time 00:48:33 | Step 1072791 / 2001000 | TPS 351.847 | ETA 00:43:58
Time 00:48:43 | Step 1076314 / 2001000 | TPS 352.246 | ETA 00:43:45
Time 00:48:53 | Step 1079832 / 2001000 | TPS 351.76 | ETA 00:43:38
Time 00:49:03 | Step 1083353 / 2001000 | TPS 352.016 | ETA 00:43:26
Time 00:49:13 | Step 1086866 / 2001000 | TPS 351.275 | ETA 00:43:22
Time 00:49:23 | Step 1090370 / 2001000 | TPS 350.37 | ETA 00:43:19
Time 00:49:33 | Step 1093857 / 2001000 | TPS 348.622 | ETA 00:43:22
Time 00:49:43 | Step 1097346 / 2001000 | TPS 348.832 | ETA 00:43:10
Time 00:49:53 | Step 1100827 / 2001000 | TPS 348.081 | ETA 00:43:06
Time 00:50:03 | Step 1104230 / 2001000 | TPS 340.224 | ETA 00:43:55
Time 00:50:13 | Step 1107739 / 2001000 | TPS 350.878 | ETA 00:42:25
Time 00:50:23 | Step 1111258 / 2001000 | TPS 351.825 | ETA 00:42:08
Time 00:50:33 | Step 1114791 / 2001000 | TPS 353.206 | ETA 00:41:49
Time 00:50:43 | Step 1118319 / 2001000 | TPS 352.793 | ETA 00:41:41
Time 00:50:53 | Step 1121861 / 2001000 | TPS 354.136 | ETA 00:41:22
Time 00:51:03 | Step 1125402 / 2001000 | TPS 354.086 | ETA 00:41:12
Time 00:51:13 | Step 1128930 / 2001000 | TPS 352.713 | ETA 00:41:12
Time 00:51:23 | Step 1132465 / 2001000 | TPS 353.411 | ETA 00:40:57
Time 00:51:33 | Step 1135986 / 2001000 | TPS 352.077 | ETA 00:40:56
Time 00:51:43 | Step 1139505 / 2001000 | TPS 351.893 | ETA 00:40:48
Time 00:51:53 | Step 1143016 / 2001000 | TPS 351.075 | ETA 00:40:43
Time 00:52:03 | Step 1146523 / 2001000 | TPS 350.692 | ETA 00:40:36
Time 00:52:13 | Step 1150016 / 2001000 | TPS 349.224 | ETA 00:40:36
Time 00:52:23 | Step 1153511 / 2001000 | TPS 349.449 | ETA 00:40:25
Time 00:52:33 | Step 1157006 / 2001000 | TPS 349.453 | ETA 00:40:15
Time 00:52:43 | Step 1160501 / 2001000 | TPS 349.422 | ETA 00:40:05
Time 00:52:53 | Step 1163995 / 2001000 | TPS 349.35 | ETA 00:39:55
Time 00:53:03 | Step 1167487 / 2001000 | TPS 349.111 | ETA 00:39:47
Time 00:53:13 | Step 1170985 / 2001000 | TPS 349.718 | ETA 00:39:33
Time 00:53:23 | Step 1174482 / 2001000 | TPS 349.674 | ETA 00:39:23
Time 00:53:33 | Step 1177991 / 2001000 | TPS 350.839 | ETA 00:39:05
Time 00:53:43 | Step 1181507 / 2001000 | TPS 351.543 | ETA 00:38:51
Time 00:53:53 | Step 1185024 / 2001000 | TPS 351.659 | ETA 00:38:40
Time 00:54:03 | Step 1188548 / 2001000 | TPS 352.374 | ETA 00:38:25
Time 00:54:13 | Step 1192075 / 2001000 | TPS 352.37 | ETA 00:38:15
Time 00:54:23 | Step 1195595 / 2001000 | TPS 351.948 | ETA 00:38:08
Time 00:54:33 | Step 1199103 / 2001000 | TPS 350.483 | ETA 00:38:07
Time 00:54:43 | Step 1202611 / 2001000 | TPS 350.768 | ETA 00:37:56
Time 00:54:53 | Step 1206015 / 2001000 | TPS 340.321 | ETA 00:38:55
Time 00:55:03 | Step 1209515 / 2001000 | TPS 349.978 | ETA 00:37:41
Time 00:55:13 | Step 1213004 / 2001000 | TPS 348.831 | ETA 00:37:38
Time 00:55:23 | Step 1216489 / 2001000 | TPS 348.488 | ETA 00:37:31
Time 00:55:33 | Step 1219983 / 2001000 | TPS 349.346 | ETA 00:37:15
Time 00:55:43 | Step 1223475 / 2001000 | TPS 349.164 | ETA 00:37:06
Time 00:55:53 | Step 1226965 / 2001000 | TPS 348.965 | ETA 00:36:58
Time 00:56:03 | Step 1230456 / 2001000 | TPS 349.035 | ETA 00:36:47
Time 00:56:13 | Step 1233945 / 2001000 | TPS 348.84 | ETA 00:36:38
Time 00:56:23 | Step 1237436 / 2001000 | TPS 349.044 | ETA 00:36:27
Time 00:56:33 | Step 1240923 / 2001000 | TPS 348.646 | ETA 00:36:20
Time 00:56:43 | Step 1244419 / 2001000 | TPS 349.508 | ETA 00:36:04
Time 00:56:53 | Step 1247917 / 2001000 | TPS 349.75 | ETA 00:35:53
Time 00:57:03 | Step 1251426 / 2001000 | TPS 350.865 | ETA 00:35:36
Time 00:57:13 | Step 1254940 / 2001000 | TPS 351.369 | ETA 00:35:23
Time 00:57:23 | Step 1258452 / 2001000 | TPS 351.124 | ETA 00:35:14
Time 00:57:33 | Step 1261961 / 2001000 | TPS 350.808 | ETA 00:35:06
Time 00:57:43 | Step 1265476 / 2001000 | TPS 351.471 | ETA 00:34:52
Time 00:57:53 | Step 1268974 / 2001000 | TPS 349.787 | ETA 00:34:52
Time 00:58:03 | Step 1272472 / 2001000 | TPS 349.792 | ETA 00:34:42
Time 00:58:13 | Step 1275960 / 2001000 | TPS 348.742 | ETA 00:34:39
Time 00:58:23 | Step 1279447 / 2001000 | TPS 348.597 | ETA 00:34:29
Time 00:58:33 | Step 1282934 / 2001000 | TPS 348.614 | ETA 00:34:19
Time 00:58:43 | Step 1286421 / 2001000 | TPS 348.624 | ETA 00:34:09
Time 00:58:53 | Step 1289907 / 2001000 | TPS 348.557 | ETA 00:34:00
Time 00:59:03 | Step 1293394 / 2001000 | TPS 348.641 | ETA 00:33:49
Time 00:59:13 | Step 1296881 / 2001000 | TPS 348.677 | ETA 00:33:39
Time 00:59:23 | Step 1300368 / 2001000 | TPS 348.661 | ETA 00:33:29
Time 00:59:33 | Step 1303753 / 2001000 | TPS 338.474 | ETA 00:34:19
Time 00:59:43 | Step 1307263 / 2001000 | TPS 350.95 | ETA 00:32:56
Time 00:59:53 | Step 1310768 / 2001000 | TPS 350.441 | ETA 00:32:49
Time 01:00:03 | Step 1314272 / 2001000 | TPS 350.356 | ETA 00:32:40
Time 01:00:13 | Step 1317779 / 2001000 | TPS 350.668 | ETA 00:32:28
Time 01:00:23 | Step 1321285 / 2001000 | TPS 350.59 | ETA 00:32:18
Time 01:00:33 | Step 1324794 / 2001000 | TPS 350.846 | ETA 00:32:07
Time 01:00:43 | Step 1328303 / 2001000 | TPS 350.87 | ETA 00:31:57
Time 01:00:53 | Step 1331810 / 2001000 | TPS 350.67 | ETA 00:31:48
Time 01:01:03 | Step 1335319 / 2001000 | TPS 350.844 | ETA 00:31:37
Time 01:01:13 | Step 1338823 / 2001000 | TPS 350.38 | ETA 00:31:29
Time 01:01:23 | Step 1342331 / 2001000 | TPS 350.739 | ETA 00:31:17
Time 01:01:33 | Step 1345838 / 2001000 | TPS 350.637 | ETA 00:31:08
Time 01:01:43 | Step 1349345 / 2001000 | TPS 350.692 | ETA 00:30:58
Time 01:01:53 | Step 1352838 / 2001000 | TPS 349.283 | ETA 00:30:55
Time 01:02:03 | Step 1356341 / 2001000 | TPS 350.253 | ETA 00:30:40
Time 01:02:13 | Step 1359824 / 2001000 | TPS 348.228 | ETA 00:30:41
Time 01:02:23 | Step 1363299 / 2001000 | TPS 347.464 | ETA 00:30:35
Time 01:02:33 | Step 1366793 / 2001000 | TPS 349.364 | ETA 00:30:15
Time 01:02:43 | Step 1370298 / 2001000 | TPS 350.103 | ETA 00:30:01
Time 01:02:53 | Step 1373802 / 2001000 | TPS 350.39 | ETA 00:29:49
Time 01:03:03 | Step 1377307 / 2001000 | TPS 350.493 | ETA 00:29:39
Time 01:03:13 | Step 1380810 / 2001000 | TPS 350.243 | ETA 00:29:30
Time 01:03:23 | Step 1384314 / 2001000 | TPS 350.358 | ETA 00:29:20
Time 01:03:33 | Step 1387817 / 2001000 | TPS 350.239 | ETA 00:29:10
Time 01:03:43 | Step 1391322 / 2001000 | TPS 350.441 | ETA 00:28:59
Time 01:03:53 | Step 1394826 / 2001000 | TPS 350.336 | ETA 00:28:50
Time 01:04:03 | Step 1398323 / 2001000 | TPS 349.667 | ETA 00:28:43
Time 01:04:13 | Step 1401825 / 2001000 | TPS 350.178 | ETA 00:28:31
Time 01:04:23 | Step 1405222 / 2001000 | TPS 339.614 | ETA 00:29:14
Time 01:04:33 | Step 1408721 / 2001000 | TPS 349.875 | ETA 00:28:12
Time 01:04:43 | Step 1412217 / 2001000 | TPS 349.59 | ETA 00:28:04
Time 01:04:53 | Step 1415713 / 2001000 | TPS 349.552 | ETA 00:27:54
Time 01:05:03 | Step 1419205 / 2001000 | TPS 349.135 | ETA 00:27:46
Time 01:05:13 | Step 1422676 / 2001000 | TPS 347.054 | ETA 00:27:46
Time 01:05:23 | Step 1426138 / 2001000 | TPS 345.946 | ETA 00:27:41
Time 01:05:33 | Step 1429605 / 2001000 | TPS 346.693 | ETA 00:27:28
Time 01:05:43 | Step 1433078 / 2001000 | TPS 347.272 | ETA 00:27:15
Time 01:05:53 | Step 1436571 / 2001000 | TPS 349.241 | ETA 00:26:56
Time 01:06:03 | Step 1440068 / 2001000 | TPS 349.679 | ETA 00:26:44
Time 01:06:13 | Step 1443561 / 2001000 | TPS 349.283 | ETA 00:26:35
Time 01:06:23 | Step 1447059 / 2001000 | TPS 349.762 | ETA 00:26:23
Time 01:06:33 | Step 1450556 / 2001000 | TPS 349.65 | ETA 00:26:14
Time 01:06:43 | Step 1454055 / 2001000 | TPS 349.821 | ETA 00:26:03
Time 01:06:53 | Step 1457544 / 2001000 | TPS 348.856 | ETA 00:25:57
Time 01:07:03 | Step 1461038 / 2001000 | TPS 349.374 | ETA 00:25:45
Time 01:07:13 | Step 1464530 / 2001000 | TPS 349.16 | ETA 00:25:36
Time 01:07:23 | Step 1468026 / 2001000 | TPS 349.532 | ETA 00:25:24
Time 01:07:33 | Step 1471516 / 2001000 | TPS 348.983 | ETA 00:25:17
Time 01:07:43 | Step 1475002 / 2001000 | TPS 348.555 | ETA 00:25:09
Time 01:07:53 | Step 1478495 / 2001000 | TPS 349.22 | ETA 00:24:56
Time 01:08:03 | Step 1481970 / 2001000 | TPS 347.453 | ETA 00:24:53
Time 01:08:13 | Step 1485446 / 2001000 | TPS 347.555 | ETA 00:24:43
Time 01:08:23 | Step 1488901 / 2001000 | TPS 345.42 | ETA 00:24:42
Time 01:08:33 | Step 1492351 / 2001000 | TPS 344.989 | ETA 00:24:34
Time 01:08:43 | Step 1495802 / 2001000 | TPS 345.027 | ETA 00:24:24
Time 01:08:53 | Step 1499263 / 2001000 | TPS 346.023 | ETA 00:24:10
Time 01:09:03 | Step 1502733 / 2001000 | TPS 346.983 | ETA 00:23:55
Time 01:09:13 | Step 1506110 / 2001000 | TPS 337.613 | ETA 00:24:25
Time 01:09:23 | Step 1509591 / 2001000 | TPS 348.083 | ETA 00:23:31
Time 01:09:33 | Step 1513068 / 2001000 | TPS 347.662 | ETA 00:23:23
Time 01:09:43 | Step 1516552 / 2001000 | TPS 348.342 | ETA 00:23:10
Time 01:09:53 | Step 1520035 / 2001000 | TPS 348.216 | ETA 00:23:01
Time 01:10:03 | Step 1523513 / 2001000 | TPS 347.719 | ETA 00:22:53
Time 01:10:13 | Step 1526996 / 2001000 | TPS 348.251 | ETA 00:22:41
Time 01:10:23 | Step 1530472 / 2001000 | TPS 347.52 | ETA 00:22:33
Time 01:10:33 | Step 1533956 / 2001000 | TPS 348.353 | ETA 00:22:20
Time 01:10:43 | Step 1537430 / 2001000 | TPS 347.328 | ETA 00:22:14
Time 01:10:53 | Step 1540906 / 2001000 | TPS 347.514 | ETA 00:22:03
Time 01:11:03 | Step 1544381 / 2001000 | TPS 347.443 | ETA 00:21:54
Time 01:11:13 | Step 1547849 / 2001000 | TPS 346.768 | ETA 00:21:46
Time 01:11:23 | Step 1551317 / 2001000 | TPS 346.787 | ETA 00:21:36
Time 01:11:33 | Step 1554785 / 2001000 | TPS 346.787 | ETA 00:21:26
Time 01:11:43 | Step 1558254 / 2001000 | TPS 346.892 | ETA 00:21:16
Time 01:11:53 | Step 1561727 / 2001000 | TPS 347.3 | ETA 00:21:04
Time 01:12:03 | Step 1565200 / 2001000 | TPS 347.123 | ETA 00:20:55
Time 01:12:13 | Step 1568691 / 2001000 | TPS 349.054 | ETA 00:20:38
Time 01:12:23 | Step 1572206 / 2001000 | TPS 351.218 | ETA 00:20:20
Time 01:12:33 | Step 1575733 / 2001000 | TPS 352.64 | ETA 00:20:05
Time 01:12:43 | Step 1579255 / 2001000 | TPS 352.062 | ETA 00:19:57
Time 01:12:53 | Step 1582776 / 2001000 | TPS 352.089 | ETA 00:19:47
Time 01:13:03 | Step 1586296 / 2001000 | TPS 351.908 | ETA 00:19:38
Time 01:13:13 | Step 1589817 / 2001000 | TPS 351.98 | ETA 00:19:28
Time 01:13:23 | Step 1593341 / 2001000 | TPS 352.382 | ETA 00:19:16
Time 01:13:33 | Step 1596868 / 2001000 | TPS 352.624 | ETA 00:19:06
Time 01:13:43 | Step 1600405 / 2001000 | TPS 353.623 | ETA 00:18:52
Time 01:13:53 | Step 1603905 / 2001000 | TPS 349.912 | ETA 00:18:54
Time 01:14:03 | Step 1607367 / 2001000 | TPS 346.15 | ETA 00:18:57
Time 01:14:13 | Step 1610919 / 2001000 | TPS 355.147 | ETA 00:18:18
Time 01:14:23 | Step 1614472 / 2001000 | TPS 355.22 | ETA 00:18:08
Time 01:14:33 | Step 1618031 / 2001000 | TPS 355.867 | ETA 00:17:56
Time 01:14:43 | Step 1621582 / 2001000 | TPS 355.023 | ETA 00:17:48
Time 01:14:53 | Step 1625135 / 2001000 | TPS 355.288 | ETA 00:17:37
Time 01:15:03 | Step 1628697 / 2001000 | TPS 356.112 | ETA 00:17:25
Time 01:15:13 | Step 1632250 / 2001000 | TPS 355.238 | ETA 00:17:18
Time 01:15:23 | Step 1635803 / 2001000 | TPS 354.94 | ETA 00:17:08
Time 01:15:33 | Step 1639352 / 2001000 | TPS 354.819 | ETA 00:16:59
Time 01:15:43 | Step 1642911 / 2001000 | TPS 355.876 | ETA 00:16:46
Time 01:15:53 | Step 1646413 / 2001000 | TPS 350.114 | ETA 00:16:52
Time 01:16:03 | Step 1649907 / 2001000 | TPS 349.202 | ETA 00:16:45
Time 01:16:13 | Step 1653396 / 2001000 | TPS 348.837 | ETA 00:16:36
Time 01:16:23 | Step 1656903 / 2001000 | TPS 350.663 | ETA 00:16:21
Time 01:16:33 | Step 1660443 / 2001000 | TPS 353.949 | ETA 00:16:02
Time 01:16:43 | Step 1663975 / 2001000 | TPS 353.196 | ETA 00:15:54
Time 01:16:53 | Step 1667505 / 2001000 | TPS 352.98 | ETA 00:15:44
Time 01:17:03 | Step 1671043 / 2001000 | TPS 353.784 | ETA 00:15:32
Time 01:17:13 | Step 1674584 / 2001000 | TPS 354.096 | ETA 00:15:21
Time 01:17:23 | Step 1678113 / 2001000 | TPS 352.871 | ETA 00:15:15
Time 01:17:33 | Step 1681649 / 2001000 | TPS 353.53 | ETA 00:15:03
Time 01:17:43 | Step 1685191 / 2001000 | TPS 354.173 | ETA 00:14:51
Time 01:17:53 | Step 1688745 / 2001000 | TPS 355.384 | ETA 00:14:38
Time 01:18:03 | Step 1692290 / 2001000 | TPS 354.417 | ETA 00:14:31
Time 01:18:13 | Step 1695840 / 2001000 | TPS 354.956 | ETA 00:14:19
Time 01:18:23 | Step 1699389 / 2001000 | TPS 354.832 | ETA 00:14:10
Time 01:18:33 | Step 1702936 / 2001000 | TPS 354.656 | ETA 00:14:00
Time 01:18:43 | Step 1706383 / 2001000 | TPS 344.538 | ETA 00:14:15
Time 01:18:53 | Step 1709937 / 2001000 | TPS 355.338 | ETA 00:13:39
Time 01:19:03 | Step 1713489 / 2001000 | TPS 355.176 | ETA 00:13:29
Time 01:19:13 | Step 1717040 / 2001000 | TPS 355.085 | ETA 00:13:19
Time 01:19:23 | Step 1720585 / 2001000 | TPS 354.433 | ETA 00:13:11
Time 01:19:33 | Step 1724111 / 2001000 | TPS 352.57 | ETA 00:13:05
Time 01:19:43 | Step 1727646 / 2001000 | TPS 353.424 | ETA 00:12:53
Time 01:19:53 | Step 1731171 / 2001000 | TPS 352.498 | ETA 00:12:45
Time 01:20:03 | Step 1734697 / 2001000 | TPS 352.547 | ETA 00:12:35
Time 01:20:13 | Step 1738218 / 2001000 | TPS 352.079 | ETA 00:12:26
Time 01:20:23 | Step 1741737 / 2001000 | TPS 351.838 | ETA 00:12:16
Time 01:20:33 | Step 1745257 / 2001000 | TPS 351.986 | ETA 00:12:06
Time 01:20:43 | Step 1748771 / 2001000 | TPS 351.369 | ETA 00:11:57
Time 01:20:53 | Step 1752279 / 2001000 | TPS 350.77 | ETA 00:11:49
Time 01:21:03 | Step 1755783 / 2001000 | TPS 350.312 | ETA 00:11:39
Time 01:21:13 | Step 1759290 / 2001000 | TPS 350.683 | ETA 00:11:29
Time 01:21:23 | Step 1762792 / 2001000 | TPS 350.12 | ETA 00:11:20
Time 01:21:33 | Step 1766297 / 2001000 | TPS 350.416 | ETA 00:11:09
Time 01:21:43 | Step 1769813 / 2001000 | TPS 351.587 | ETA 00:10:57
Time 01:21:53 | Step 1773334 / 2001000 | TPS 352.047 | ETA 00:10:46
Time 01:22:03 | Step 1776855 / 2001000 | TPS 351.678 | ETA 00:10:37
Time 01:22:13 | Step 1780375 / 2001000 | TPS 351.936 | ETA 00:10:26
Time 01:22:23 | Step 1783895 / 2001000 | TPS 351.593 | ETA 00:10:17
Time 01:22:33 | Step 1787413 / 2001000 | TPS 351.733 | ETA 00:10:07
Time 01:22:43 | Step 1790926 / 2001000 | TPS 351.265 | ETA 00:09:58
Time 01:22:53 | Step 1794438 / 2001000 | TPS 351.197 | ETA 00:09:48
Time 01:23:03 | Step 1797947 / 2001000 | TPS 350.898 | ETA 00:09:38
Time 01:23:13 | Step 1801457 / 2001000 | TPS 350.974 | ETA 00:09:28
Time 01:23:23 | Step 1804854 / 2001000 | TPS 339.694 | ETA 00:09:37
Time 01:23:33 | Step 1808353 / 2001000 | TPS 349.886 | ETA 00:09:10
Time 01:23:43 | Step 1811852 / 2001000 | TPS 349.863 | ETA 00:09:00
Time 01:23:53 | Step 1815347 / 2001000 | TPS 349.485 | ETA 00:08:51
Time 01:24:03 | Step 1818841 / 2001000 | TPS 349.349 | ETA 00:08:41
Time 01:24:13 | Step 1822329 / 2001000 | TPS 348.761 | ETA 00:08:32
Time 01:24:23 | Step 1825812 / 2001000 | TPS 348.221 | ETA 00:08:23
Time 01:24:33 | Step 1829295 / 2001000 | TPS 348.284 | ETA 00:08:13
Time 01:24:43 | Step 1832754 / 2001000 | TPS 345.882 | ETA 00:08:06
Time 01:24:53 | Step 1836218 / 2001000 | TPS 346.356 | ETA 00:07:55
Time 01:25:03 | Step 1839678 / 2001000 | TPS 345.923 | ETA 00:07:46
Time 01:25:13 | Step 1843136 / 2001000 | TPS 345.744 | ETA 00:07:36
Time 01:25:23 | Step 1846585 / 2001000 | TPS 344.84 | ETA 00:07:27
Time 01:25:33 | Step 1850038 / 2001000 | TPS 345.254 | ETA 00:07:17
Time 01:25:43 | Step 1853486 / 2001000 | TPS 344.743 | ETA 00:07:07
Time 01:25:53 | Step 1856922 / 2001000 | TPS 343.559 | ETA 00:06:59
Time 01:26:03 | Step 1860365 / 2001000 | TPS 344.23 | ETA 00:06:48
Time 01:26:13 | Step 1863808 / 2001000 | TPS 344.265 | ETA 00:06:38
Time 01:26:23 | Step 1867255 / 2001000 | TPS 344.675 | ETA 00:06:28
Time 01:26:33 | Step 1870716 / 2001000 | TPS 346.016 | ETA 00:06:16
Time 01:26:43 | Step 1874181 / 2001000 | TPS 346.484 | ETA 00:06:06
Time 01:26:53 | Step 1877645 / 2001000 | TPS 346.318 | ETA 00:05:56
Time 01:27:03 | Step 1881117 / 2001000 | TPS 347.195 | ETA 00:05:45
Time 01:27:13 | Step 1884589 / 2001000 | TPS 347.198 | ETA 00:05:35
Time 01:27:23 | Step 1888053 / 2001000 | TPS 346.388 | ETA 00:05:26
Time 01:27:33 | Step 1891528 / 2001000 | TPS 347.454 | ETA 00:05:15
Time 01:27:43 | Step 1895000 / 2001000 | TPS 347.162 | ETA 00:05:05
Time 01:27:53 | Step 1898467 / 2001000 | TPS 346.655 | ETA 00:04:55
Time 01:28:03 | Step 1901936 / 2001000 | TPS 346.841 | ETA 00:04:45
Time 01:28:13 | Step 1905315 / 2001000 | TPS 337.845 | ETA 00:04:43
Time 01:28:23 | Step 1908851 / 2001000 | TPS 353.381 | ETA 00:04:20
Time 01:28:33 | Step 1912382 / 2001000 | TPS 353.017 | ETA 00:04:11
Time 01:28:43 | Step 1915914 / 2001000 | TPS 353.123 | ETA 00:04:00
Time 01:28:53 | Step 1919451 / 2001000 | TPS 353.657 | ETA 00:03:50
Time 01:29:03 | Step 1922976 / 2001000 | TPS 352.485 | ETA 00:03:41
Time 01:29:13 | Step 1926504 / 2001000 | TPS 352.756 | ETA 00:03:31
Time 01:29:23 | Step 1930037 / 2001000 | TPS 353.275 | ETA 00:03:20
Time 01:29:33 | Step 1933565 / 2001000 | TPS 352.76 | ETA 00:03:11
Time 01:29:43 | Step 1937091 / 2001000 | TPS 352.536 | ETA 00:03:01
Time 01:29:53 | Step 1940623 / 2001000 | TPS 353.147 | ETA 00:02:50
Time 01:30:03 | Step 1944153 / 2001000 | TPS 352.927 | ETA 00:02:41
Time 01:30:13 | Step 1947672 / 2001000 | TPS 351.9 | ETA 00:02:31
Time 01:30:23 | Step 1951198 / 2001000 | TPS 352.565 | ETA 00:02:21
Time 01:30:33 | Step 1954726 / 2001000 | TPS 352.783 | ETA 00:02:11
Time 01:30:43 | Step 1958252 / 2001000 | TPS 352.599 | ETA 00:02:01
Time 01:30:53 | Step 1961780 / 2001000 | TPS 352.757 | ETA 00:01:51
Time 01:31:03 | Step 1965307 / 2001000 | TPS 352.629 | ETA 00:01:41
Time 01:31:13 | Step 1968833 / 2001000 | TPS 352.589 | ETA 00:01:31
Time 01:31:23 | Step 1972351 / 2001000 | TPS 351.674 | ETA 00:01:21
Time 01:31:33 | Step 1975885 / 2001000 | TPS 353.347 | ETA 00:01:11
Time 01:31:43 | Step 1979420 / 2001000 | TPS 353.468 | ETA 00:01:01
Time 01:31:53 | Step 1982960 / 2001000 | TPS 353.918 | ETA 00:00:50
Time 01:32:03 | Step 1986499 / 2001000 | TPS 353.896 | ETA 00:00:40
Time 01:32:13 | Step 1990036 / 2001000 | TPS 353.67 | ETA 00:00:31
Time 01:32:23 | Step 1993569 / 2001000 | TPS 353.224 | ETA 00:00:21
Time 01:32:33 | Step 1997100 / 2001000 | TPS 353.047 | ETA 00:00:11
Time 01:32:43 | Step 2000635 / 2001000 | TPS 353.431 | ETA 00:00:01
Time 01:32:44 | Step 2001000 / 2001000 | TPS 357.643 | ETA 00:00:00
Average TPS: 359.589
---------
-- Neighborlist stats:
28332 normal updates / 1 forced updates / 0 dangerous updates
n_neigh_min: 0 / n_neigh_max: 214 / n_neigh_avg: 176.667
shortest rebuild period: 37
-- Cell list stats:
Dimension: 15, 15, 17
n_min    : 0 / n_max: 61 / n_avg: 14.1176
** run complete **
benchmark.py:090  |  integrator.set_params(kT=variant.linear_interp(points=[(0, logger.query('temperature')), (2e6, tf)]))
benchmark.py:091  |  run(2e6)
** starting run **
Time 01:32:54 | Step 2004540 / 4001000 | TPS 353.916 | ETA 01:34:01
Time 01:33:04 | Step 2007951 / 4001000 | TPS 341.03 | ETA 01:37:24
Time 01:33:14 | Step 2011478 / 4001000 | TPS 352.615 | ETA 01:34:02
Time 01:33:24 | Step 2015004 / 4001000 | TPS 352.59 | ETA 01:33:52
Time 01:33:34 | Step 2018524 / 4001000 | TPS 351.914 | ETA 01:33:53
Time 01:33:44 | Step 2022044 / 4001000 | TPS 351.971 | ETA 01:33:42
Time 01:33:54 | Step 2025563 / 4001000 | TPS 351.505 | ETA 01:33:39
Time 01:34:04 | Step 2029083 / 4001000 | TPS 351.601 | ETA 01:33:28
Time 01:34:14 | Step 2032598 / 4001000 | TPS 351.467 | ETA 01:33:20
Time 01:34:24 | Step 2036113 / 4001000 | TPS 351.448 | ETA 01:33:10
Time 01:34:34 | Step 2039624 / 4001000 | TPS 351.007 | ETA 01:33:07
Time 01:34:44 | Step 2043134 / 4001000 | TPS 350.989 | ETA 01:32:58
Time 01:34:54 | Step 2046638 / 4001000 | TPS 350.323 | ETA 01:32:58
Time 01:35:04 | Step 2050144 / 4001000 | TPS 350.546 | ETA 01:32:45
Time 01:35:14 | Step 2053647 / 4001000 | TPS 350.225 | ETA 01:32:40
Time 01:35:24 | Step 2057151 / 4001000 | TPS 350.367 | ETA 01:32:28
Time 01:35:34 | Step 2060667 / 4001000 | TPS 351.53 | ETA 01:31:59
Time 01:35:44 | Step 2064173 / 4001000 | TPS 350.51 | ETA 01:32:05
Time 01:35:54 | Step 2067683 / 4001000 | TPS 350.645 | ETA 01:31:53
Time 01:36:04 | Step 2071186 / 4001000 | TPS 350.278 | ETA 01:31:49
Time 01:36:14 | Step 2074674 / 4001000 | TPS 348.797 | ETA 01:32:02
Time 01:36:24 | Step 2078173 / 4001000 | TPS 349.881 | ETA 01:31:35
Time 01:36:34 | Step 2081666 / 4001000 | TPS 349.298 | ETA 01:31:34
Time 01:36:44 | Step 2085156 / 4001000 | TPS 348.999 | ETA 01:31:29
Time 01:36:54 | Step 2088646 / 4001000 | TPS 348.933 | ETA 01:31:20
Time 01:37:04 | Step 2092130 / 4001000 | TPS 348.397 | ETA 01:31:19
Time 01:37:14 | Step 2095612 / 4001000 | TPS 348.12 | ETA 01:31:13
Time 01:37:24 | Step 2099098 / 4001000 | TPS 348.52 | ETA 01:30:57
Time 01:37:34 | Step 2102577 / 4001000 | TPS 347.452 | ETA 01:31:03
Time 01:37:44 | Step 2105932 / 4001000 | TPS 335.422 | ETA 01:34:09
Time 01:37:54 | Step 2109404 / 4001000 | TPS 347.187 | ETA 01:30:48
Time 01:38:04 | Step 2112877 / 4001000 | TPS 347.248 | ETA 01:30:37
Time 01:38:14 | Step 2116347 / 4001000 | TPS 346.936 | ETA 01:30:32
Time 01:38:24 | Step 2119817 / 4001000 | TPS 346.948 | ETA 01:30:22
Time 01:38:34 | Step 2123280 / 4001000 | TPS 346.294 | ETA 01:30:22
Time 01:38:44 | Step 2126749 / 4001000 | TPS 346.462 | ETA 01:30:09
Time 01:38:54 | Step 2130217 / 4001000 | TPS 346.754 | ETA 01:29:55
Time 01:39:04 | Step 2133680 / 4001000 | TPS 346.265 | ETA 01:29:52
Time 01:39:14 | Step 2137145 / 4001000 | TPS 346.475 | ETA 01:29:39
Time 01:39:24 | Step 2140611 / 4001000 | TPS 346.516 | ETA 01:29:28
Time 01:39:34 | Step 2144076 / 4001000 | TPS 346.469 | ETA 01:29:19
Time 01:39:44 | Step 2147456 / 4001000 | TPS 337.946 | ETA 01:31:24
Time 01:39:54 | Step 2150855 / 4001000 | TPS 339.895 | ETA 01:30:43
Time 01:40:04 | Step 2154268 / 4001000 | TPS 341.276 | ETA 01:30:11
Time 01:40:14 | Step 2157773 / 4001000 | TPS 350.483 | ETA 01:27:39
Time 01:40:24 | Step 2161271 / 4001000 | TPS 349.773 | ETA 01:27:39
Time 01:40:34 | Step 2164769 / 4001000 | TPS 349.732 | ETA 01:27:30
Time 01:40:44 | Step 2168270 / 4001000 | TPS 350.011 | ETA 01:27:16
Time 01:40:54 | Step 2171764 / 4001000 | TPS 349.178 | ETA 01:27:18
Time 01:41:04 | Step 2175255 / 4001000 | TPS 349.068 | ETA 01:27:10
Time 01:41:14 | Step 2178744 / 4001000 | TPS 348.889 | ETA 01:27:03
Time 01:41:24 | Step 2182236 / 4001000 | TPS 349.189 | ETA 01:26:48
Time 01:41:34 | Step 2185727 / 4001000 | TPS 349.022 | ETA 01:26:41
Time 01:41:44 | Step 2189211 / 4001000 | TPS 348.338 | ETA 01:26:41
Time 01:41:54 | Step 2192692 / 4001000 | TPS 348.078 | ETA 01:26:35
Time 01:42:04 | Step 2196175 / 4001000 | TPS 348.208 | ETA 01:26:23
Time 01:42:14 | Step 2199644 / 4001000 | TPS 346.862 | ETA 01:26:33
Time 01:42:24 | Step 2203119 / 4001000 | TPS 347.451 | ETA 01:26:14
Time 01:42:34 | Step 2206440 / 4001000 | TPS 332.077 | ETA 01:30:04
Time 01:42:44 | Step 2209853 / 4001000 | TPS 341.153 | ETA 01:27:30
Time 01:42:54 | Step 2213268 / 4001000 | TPS 341.495 | ETA 01:27:15
Time 01:43:04 | Step 2216676 / 4001000 | TPS 340.729 | ETA 01:27:16
Time 01:43:14 | Step 2220097 / 4001000 | TPS 342.04 | ETA 01:26:46
Time 01:43:24 | Step 2223526 / 4001000 | TPS 342.479 | ETA 01:26:30
Time 01:43:34 | Step 2226959 / 4001000 | TPS 342.907 | ETA 01:26:13
Time 01:43:44 | Step 2230400 / 4001000 | TPS 344.02 | ETA 01:25:46
Time 01:43:54 | Step 2233837 / 4001000 | TPS 343.635 | ETA 01:25:42
Time 01:44:04 | Step 2237276 / 4001000 | TPS 343.899 | ETA 01:25:28
Time 01:44:14 | Step 2240713 / 4001000 | TPS 343.691 | ETA 01:25:21
Time 01:44:24 | Step 2244155 / 4001000 | TPS 344.127 | ETA 01:25:05
Time 01:44:34 | Step 2247596 / 4001000 | TPS 344.099 | ETA 01:24:55
Time 01:44:44 | Step 2251029 / 4001000 | TPS 343.264 | ETA 01:24:58
Time 01:44:54 | Step 2254458 / 4001000 | TPS 342.815 | ETA 01:24:54
Time 01:45:04 | Step 2257881 / 4001000 | TPS 342.276 | ETA 01:24:52
Time 01:45:14 | Step 2261309 / 4001000 | TPS 342.487 | ETA 01:24:39
Time 01:45:24 | Step 2264735 / 4001000 | TPS 342.544 | ETA 01:24:28
Time 01:45:34 | Step 2268158 / 4001000 | TPS 341.887 | ETA 01:24:28
Time 01:45:44 | Step 2271580 / 4001000 | TPS 342.179 | ETA 01:24:14
Time 01:45:54 | Step 2274987 / 4001000 | TPS 340.679 | ETA 01:24:26
Time 01:46:04 | Step 2278393 / 4001000 | TPS 340.581 | ETA 01:24:17
Time 01:46:14 | Step 2281793 / 4001000 | TPS 339.931 | ETA 01:24:17
Time 01:46:24 | Step 2285186 / 4001000 | TPS 339.263 | ETA 01:24:17
Time 01:46:34 | Step 2288581 / 4001000 | TPS 339.494 | ETA 01:24:04
Time 01:46:44 | Step 2291973 / 4001000 | TPS 339.172 | ETA 01:23:58
Time 01:46:54 | Step 2295348 / 4001000 | TPS 337.46 | ETA 01:24:14
Time 01:47:04 | Step 2298728 / 4001000 | TPS 337.958 | ETA 01:23:56
Time 01:47:14 | Step 2302101 / 4001000 | TPS 337.25 | ETA 01:23:57
Time 01:47:24 | Step 2305369 / 4001000 | TPS 326.64 | ETA 01:26:31
Time 01:47:34 | Step 2308730 / 4001000 | TPS 336.03 | ETA 01:23:56
Time 01:47:44 | Step 2312106 / 4001000 | TPS 337.51 | ETA 01:23:23
Time 01:47:54 | Step 2315483 / 4001000 | TPS 337.681 | ETA 01:23:11
Time 01:48:04 | Step 2318865 / 4001000 | TPS 338.119 | ETA 01:22:54
Time 01:48:14 | Step 2322257 / 4001000 | TPS 339.169 | ETA 01:22:29
Time 01:48:24 | Step 2325641 / 4001000 | TPS 338.336 | ETA 01:22:31
Time 01:48:34 | Step 2329040 / 4001000 | TPS 339.865 | ETA 01:21:59
Time 01:48:44 | Step 2332426 / 4001000 | TPS 338.523 | ETA 01:22:08
Time 01:48:54 | Step 2335815 / 4001000 | TPS 338.839 | ETA 01:21:54
Time 01:49:04 | Step 2339207 / 4001000 | TPS 339.142 | ETA 01:21:39
Time 01:49:14 | Step 2342600 / 4001000 | TPS 339.248 | ETA 01:21:28
Time 01:49:24 | Step 2345991 / 4001000 | TPS 339.055 | ETA 01:21:21
Time 01:49:34 | Step 2349380 / 4001000 | TPS 338.838 | ETA 01:21:14
Time 01:49:44 | Step 2352755 / 4001000 | TPS 337.482 | ETA 01:21:23
Time 01:49:54 | Step 2356140 / 4001000 | TPS 338.332 | ETA 01:21:01
Time 01:50:04 | Step 2359520 / 4001000 | TPS 337.954 | ETA 01:20:57
Time 01:50:14 | Step 2362901 / 4001000 | TPS 338.099 | ETA 01:20:45
Time 01:50:24 | Step 2366272 / 4001000 | TPS 336.721 | ETA 01:20:54
Time 01:50:34 | Step 2369642 / 4001000 | TPS 336.915 | ETA 01:20:42
Time 01:50:44 | Step 2373005 / 4001000 | TPS 336.255 | ETA 01:20:41
Time 01:50:54 | Step 2376361 / 4001000 | TPS 335.557 | ETA 01:20:41
Time 01:51:04 | Step 2379711 / 4001000 | TPS 334.909 | ETA 01:20:40
Time 01:51:14 | Step 2383064 / 4001000 | TPS 335.257 | ETA 01:20:25
Time 01:51:24 | Step 2386413 / 4001000 | TPS 334.898 | ETA 01:20:21
Time 01:51:34 | Step 2389760 / 4001000 | TPS 334.648 | ETA 01:20:14
Time 01:51:44 | Step 2393108 / 4001000 | TPS 334.767 | ETA 01:20:03
Time 01:51:54 | Step 2396453 / 4001000 | TPS 334.427 | ETA 01:19:57
Time 01:52:04 | Step 2399799 / 4001000 | TPS 334.464 | ETA 01:19:47
Time 01:52:14 | Step 2403146 / 4001000 | TPS 334.361 | ETA 01:19:38
Time 01:52:24 | Step 2406365 / 4001000 | TPS 321.84 | ETA 01:22:34
Time 01:52:35 | Step 2409708 / 4001000 | TPS 334.222 | ETA 01:19:21
Time 01:52:45 | Step 2413045 / 4001000 | TPS 333.647 | ETA 01:19:19
Time 01:52:55 | Step 2416391 / 4001000 | TPS 334.579 | ETA 01:18:56
Time 01:53:05 | Step 2419731 / 4001000 | TPS 333.965 | ETA 01:18:54
Time 01:53:15 | Step 2423077 / 4001000 | TPS 334.589 | ETA 01:18:35
Time 01:53:25 | Step 2426441 / 4001000 | TPS 336.378 | ETA 01:18:00
Time 01:53:35 | Step 2429798 / 4001000 | TPS 335.665 | ETA 01:18:00
Time 01:53:45 | Step 2433153 / 4001000 | TPS 335.412 | ETA 01:17:54
Time 01:53:55 | Step 2436515 / 4001000 | TPS 336.174 | ETA 01:17:33
Time 01:54:05 | Step 2439870 / 4001000 | TPS 335.466 | ETA 01:17:33
Time 01:54:15 | Step 2443221 / 4001000 | TPS 335.09 | ETA 01:17:28
Time 01:54:25 | Step 2446578 / 4001000 | TPS 335.68 | ETA 01:17:10
Time 01:54:35 | Step 2449934 / 4001000 | TPS 335.53 | ETA 01:17:02
Time 01:54:45 | Step 2453286 / 4001000 | TPS 335.117 | ETA 01:16:58
Time 01:54:55 | Step 2456635 / 4001000 | TPS 334.661 | ETA 01:16:54
Time 01:55:05 | Step 2459975 / 4001000 | TPS 333.995 | ETA 01:16:53
Time 01:55:15 | Step 2463306 / 4001000 | TPS 333.023 | ETA 01:16:57
Time 01:55:25 | Step 2466641 / 4001000 | TPS 333.448 | ETA 01:16:41
Time 01:55:35 | Step 2469936 / 4001000 | TPS 329.13 | ETA 01:17:31
Time 01:55:45 | Step 2473264 / 4001000 | TPS 332.778 | ETA 01:16:30
Time 01:55:55 | Step 2476591 / 4001000 | TPS 332.677 | ETA 01:16:22
Time 01:56:05 | Step 2479916 / 4001000 | TPS 332.456 | ETA 01:16:15
Time 01:56:15 | Step 2483245 / 4001000 | TPS 332.877 | ETA 01:15:59
Time 01:56:25 | Step 2486581 / 4001000 | TPS 333.582 | ETA 01:15:39
Time 01:56:35 | Step 2489929 / 4001000 | TPS 334.737 | ETA 01:15:14
Time 01:56:45 | Step 2493275 / 4001000 | TPS 334.597 | ETA 01:15:06
Time 01:56:55 | Step 2496624 / 4001000 | TPS 334.866 | ETA 01:14:52
Time 01:57:05 | Step 2499976 / 4001000 | TPS 335.154 | ETA 01:14:38
Time 01:57:15 | Step 2503329 / 4001000 | TPS 335.1 | ETA 01:14:29
Time 01:57:25 | Step 2506558 / 4001000 | TPS 322.817 | ETA 01:17:09
Time 01:57:35 | Step 2509947 / 4001000 | TPS 338.813 | ETA 01:13:20
Time 01:57:45 | Step 2513327 / 4001000 | TPS 337.935 | ETA 01:13:22
Time 01:57:55 | Step 2516709 / 4001000 | TPS 338.129 | ETA 01:13:09
Time 01:58:05 | Step 2519576 / 4001000 | TPS 286.655 | ETA 01:26:07
Time 01:58:15 | Step 2522949 / 4001000 | TPS 337.232 | ETA 01:13:02
Time 01:58:25 | Step 2526325 / 4001000 | TPS 337.539 | ETA 01:12:48
Time 01:58:35 | Step 2529702 / 4001000 | TPS 337.687 | ETA 01:12:36
Time 01:58:45 | Step 2533073 / 4001000 | TPS 337.085 | ETA 01:12:34
Time 01:58:55 | Step 2536440 / 4001000 | TPS 336.693 | ETA 01:12:29
Time 01:59:05 | Step 2539806 / 4001000 | TPS 336.519 | ETA 01:12:22
Time 01:59:15 | Step 2543167 / 4001000 | TPS 336.097 | ETA 01:12:17
Time 01:59:25 | Step 2546531 / 4001000 | TPS 336.327 | ETA 01:12:04
Time 01:59:35 | Step 2549889 / 4001000 | TPS 335.796 | ETA 01:12:01
Time 01:59:45 | Step 2553247 / 4001000 | TPS 335.799 | ETA 01:11:51
Time 01:59:55 | Step 2556603 / 4001000 | TPS 335.549 | ETA 01:11:44
Time 02:00:05 | Step 2559965 / 4001000 | TPS 336.16 | ETA 01:11:26
Time 02:00:15 | Step 2563330 / 4001000 | TPS 336.417 | ETA 01:11:13
Time 02:00:25 | Step 2566706 / 4001000 | TPS 337.559 | ETA 01:10:49
Time 02:00:35 | Step 2570077 / 4001000 | TPS 337.096 | ETA 01:10:44
Time 02:00:45 | Step 2573447 / 4001000 | TPS 336.969 | ETA 01:10:36
Time 02:00:55 | Step 2576824 / 4001000 | TPS 337.608 | ETA 01:10:18
Time 02:01:05 | Step 2580207 / 4001000 | TPS 338.216 | ETA 01:10:00
Time 02:01:15 | Step 2583599 / 4001000 | TPS 338.864 | ETA 01:09:42
Time 02:01:25 | Step 2586982 / 4001000 | TPS 338.292 | ETA 01:09:39
Time 02:01:35 | Step 2590365 / 4001000 | TPS 338.23 | ETA 01:09:30
Time 02:01:45 | Step 2593749 / 4001000 | TPS 338.316 | ETA 01:09:19
Time 02:01:55 | Step 2597125 / 4001000 | TPS 337.261 | ETA 01:09:22
Time 02:02:05 | Step 2600502 / 4001000 | TPS 337.655 | ETA 01:09:07
Time 02:02:15 | Step 2603865 / 4001000 | TPS 336.062 | ETA 01:09:17
Time 02:02:25 | Step 2607080 / 4001000 | TPS 321.478 | ETA 01:12:15
Time 02:02:35 | Step 2610416 / 4001000 | TPS 333.523 | ETA 01:09:29
Time 02:02:45 | Step 2613748 / 4001000 | TPS 333.2 | ETA 01:09:23
Time 02:02:55 | Step 2617072 / 4001000 | TPS 332.313 | ETA 01:09:24
Time 02:03:05 | Step 2619978 / 4001000 | TPS 290.576 | ETA 01:19:12
Time 02:03:15 | Step 2623304 / 4001000 | TPS 332.515 | ETA 01:09:03
Time 02:03:25 | Step 2626619 / 4001000 | TPS 331.407 | ETA 01:09:07
Time 02:03:35 | Step 2629932 / 4001000 | TPS 331.255 | ETA 01:08:59
Time 02:03:45 | Step 2633235 / 4001000 | TPS 330.219 | ETA 01:09:01
Time 02:03:55 | Step 2636528 / 4001000 | TPS 329.252 | ETA 01:09:04
Time 02:04:05 | Step 2639821 / 4001000 | TPS 329.255 | ETA 01:08:54
Time 02:04:15 | Step 2643115 / 4001000 | TPS 329.379 | ETA 01:08:42
Time 02:04:25 | Step 2646400 / 4001000 | TPS 328.48 | ETA 01:08:43
Time 02:04:35 | Step 2649691 / 4001000 | TPS 329.038 | ETA 01:08:26
Time 02:04:45 | Step 2652978 / 4001000 | TPS 328.611 | ETA 01:08:22
Time 02:04:55 | Step 2656277 / 4001000 | TPS 329.866 | ETA 01:07:56
Time 02:05:05 | Step 2659575 / 4001000 | TPS 329.789 | ETA 01:07:47
Time 02:05:15 | Step 2662875 / 4001000 | TPS 329.95 | ETA 01:07:35
Time 02:05:25 | Step 2666175 / 4001000 | TPS 329.993 | ETA 01:07:25
Time 02:05:35 | Step 2669471 / 4001000 | TPS 329.587 | ETA 01:07:19
Time 02:05:45 | Step 2672773 / 4001000 | TPS 330.108 | ETA 01:07:03
Time 02:05:55 | Step 2676069 / 4001000 | TPS 329.538 | ETA 01:07:00
Time 02:06:05 | Step 2679374 / 4001000 | TPS 330.421 | ETA 01:06:39
Time 02:06:15 | Step 2682672 / 4001000 | TPS 329.781 | ETA 01:06:37
Time 02:06:25 | Step 2685974 / 4001000 | TPS 330.144 | ETA 01:06:23
Time 02:06:35 | Step 2689139 / 4001000 | TPS 316.109 | ETA 01:09:10
Time 02:06:45 | Step 2692333 / 4001000 | TPS 319.313 | ETA 01:08:18
Time 02:06:55 | Step 2695524 / 4001000 | TPS 319.045 | ETA 01:08:11
Time 02:07:05 | Step 2698749 / 4001000 | TPS 322.495 | ETA 01:07:18
Time 02:07:15 | Step 2702028 / 4001000 | TPS 327.873 | ETA 01:06:01
Time 02:07:25 | Step 2705305 / 4001000 | TPS 327.693 | ETA 01:05:53
Time 02:07:35 | Step 2708442 / 4001000 | TPS 313.662 | ETA 01:08:40
Time 02:07:45 | Step 2711712 / 4001000 | TPS 326.966 | ETA 01:05:43
Time 02:07:55 | Step 2714987 / 4001000 | TPS 327.433 | ETA 01:05:27
Time 02:08:05 | Step 2718251 / 4001000 | TPS 326.307 | ETA 01:05:31
Time 02:08:15 | Step 2721515 / 4001000 | TPS 326.323 | ETA 01:05:20
Time 02:08:25 | Step 2724783 / 4001000 | TPS 326.748 | ETA 01:05:05
Time 02:08:35 | Step 2728053 / 4001000 | TPS 326.913 | ETA 01:04:53
Time 02:08:45 | Step 2731334 / 4001000 | TPS 328.062 | ETA 01:04:30
Time 02:08:55 | Step 2734617 / 4001000 | TPS 328.223 | ETA 01:04:18
Time 02:09:05 | Step 2737914 / 4001000 | TPS 329.653 | ETA 01:03:51
Time 02:09:15 | Step 2741203 / 4001000 | TPS 328.819 | ETA 01:03:51
Time 02:09:25 | Step 2744496 / 4001000 | TPS 329.288 | ETA 01:03:35
Time 02:09:35 | Step 2747791 / 4001000 | TPS 329.455 | ETA 01:03:23
Time 02:09:45 | Step 2751088 / 4001000 | TPS 329.676 | ETA 01:03:11
Time 02:09:55 | Step 2754384 / 4001000 | TPS 329.522 | ETA 01:03:03
Time 02:10:05 | Step 2757680 / 4001000 | TPS 329.524 | ETA 01:02:53
Time 02:10:15 | Step 2760976 / 4001000 | TPS 329.542 | ETA 01:02:42
Time 02:10:25 | Step 2764266 / 4001000 | TPS 328.909 | ETA 01:02:40
Time 02:10:35 | Step 2767533 / 4001000 | TPS 326.645 | ETA 01:02:56
Time 02:10:45 | Step 2770813 / 4001000 | TPS 327.818 | ETA 01:02:32
Time 02:10:55 | Step 2774094 / 4001000 | TPS 328.064 | ETA 01:02:19
Time 02:11:05 | Step 2777372 / 4001000 | TPS 327.77 | ETA 01:02:13
Time 02:11:15 | Step 2780648 / 4001000 | TPS 327.558 | ETA 01:02:05
Time 02:11:25 | Step 2783914 / 4001000 | TPS 326.576 | ETA 01:02:06
Time 02:11:35 | Step 2787178 / 4001000 | TPS 326.328 | ETA 01:01:59
Time 02:11:45 | Step 2790433 / 4001000 | TPS 325.471 | ETA 01:01:59
Time 02:11:55 | Step 2793685 / 4001000 | TPS 325.174 | ETA 01:01:52
Time 02:12:05 | Step 2796942 / 4001000 | TPS 325.653 | ETA 01:01:37
Time 02:12:15 | Step 2800193 / 4001000 | TPS 325.089 | ETA 01:01:33
Time 02:12:25 | Step 2803444 / 4001000 | TPS 325.033 | ETA 01:01:24
Time 02:12:35 | Step 2806554 / 4001000 | TPS 310.979 | ETA 01:04:00
Time 02:12:45 | Step 2809788 / 4001000 | TPS 323.244 | ETA 01:01:25
Time 02:12:55 | Step 2813028 / 4001000 | TPS 323.926 | ETA 01:01:07
Time 02:13:05 | Step 2816275 / 4001000 | TPS 324.675 | ETA 01:00:48
Time 02:13:15 | Step 2819521 / 4001000 | TPS 324.565 | ETA 01:00:40
Time 02:13:25 | Step 2822780 / 4001000 | TPS 325.851 | ETA 01:00:15
Time 02:13:35 | Step 2826050 / 4001000 | TPS 326.947 | ETA 00:59:53
Time 02:13:45 | Step 2829313 / 4001000 | TPS 326.222 | ETA 00:59:51
Time 02:13:55 | Step 2832580 / 4001000 | TPS 326.613 | ETA 00:59:37
Time 02:14:05 | Step 2835845 / 4001000 | TPS 326.457 | ETA 00:59:29
Time 02:14:15 | Step 2839106 / 4001000 | TPS 326.027 | ETA 00:59:23
Time 02:14:25 | Step 2842371 / 4001000 | TPS 326.497 | ETA 00:59:08
Time 02:14:35 | Step 2845633 / 4001000 | TPS 326.123 | ETA 00:59:02
Time 02:14:45 | Step 2848893 / 4001000 | TPS 325.833 | ETA 00:58:55
Time 02:14:55 | Step 2852159 / 4001000 | TPS 326.533 | ETA 00:58:38
Time 02:15:05 | Step 2855411 / 4001000 | TPS 325.117 | ETA 00:58:43
Time 02:15:15 | Step 2858657 / 4001000 | TPS 324.549 | ETA 00:58:39
Time 02:15:25 | Step 2861902 / 4001000 | TPS 324.481 | ETA 00:58:30
Time 02:15:35 | Step 2865139 / 4001000 | TPS 323.637 | ETA 00:58:29
Time 02:15:45 | Step 2868364 / 4001000 | TPS 322.427 | ETA 00:58:32
Time 02:15:55 | Step 2871589 / 4001000 | TPS 322.492 | ETA 00:58:22
Time 02:16:05 | Step 2874812 / 4001000 | TPS 322.227 | ETA 00:58:15
Time 02:16:15 | Step 2878025 / 4001000 | TPS 321.277 | ETA 00:58:15
Time 02:16:25 | Step 2881231 / 4001000 | TPS 320.429 | ETA 00:58:14
Time 02:16:35 | Step 2884438 / 4001000 | TPS 320.662 | ETA 00:58:02
Time 02:16:45 | Step 2887640 / 4001000 | TPS 320.12 | ETA 00:57:57
Time 02:16:55 | Step 2890837 / 4001000 | TPS 319.662 | ETA 00:57:52
Time 02:17:05 | Step 2894032 / 4001000 | TPS 319.499 | ETA 00:57:44
Time 02:17:15 | Step 2897225 / 4001000 | TPS 319.222 | ETA 00:57:37
Time 02:17:25 | Step 2900416 / 4001000 | TPS 319.013 | ETA 00:57:29
Time 02:17:35 | Step 2903608 / 4001000 | TPS 319.132 | ETA 00:57:18
Time 02:17:45 | Step 2906675 / 4001000 | TPS 306.681 | ETA 00:59:28
Time 02:17:55 | Step 2909881 / 4001000 | TPS 320.574 | ETA 00:56:43
Time 02:18:05 | Step 2913086 / 4001000 | TPS 320.495 | ETA 00:56:34
Time 02:18:15 | Step 2916288 / 4001000 | TPS 320.168 | ETA 00:56:27
Time 02:18:25 | Step 2919500 / 4001000 | TPS 321.161 | ETA 00:56:07
Time 02:18:35 | Step 2922708 / 4001000 | TPS 320.72 | ETA 00:56:02
Time 02:18:45 | Step 2925914 / 4001000 | TPS 320.559 | ETA 00:55:53
Time 02:18:55 | Step 2929112 / 4001000 | TPS 319.374 | ETA 00:55:56
Time 02:19:05 | Step 2932314 / 4001000 | TPS 320.128 | ETA 00:55:38
Time 02:19:15 | Step 2935506 / 4001000 | TPS 319.18 | ETA 00:55:38
Time 02:19:25 | Step 2938695 / 4001000 | TPS 318.859 | ETA 00:55:31
Time 02:19:35 | Step 2941874 / 4001000 | TPS 317.893 | ETA 00:55:31
Time 02:19:45 | Step 2945054 / 4001000 | TPS 317.941 | ETA 00:55:21
Time 02:19:55 | Step 2948225 / 4001000 | TPS 317.026 | ETA 00:55:20
Time 02:20:05 | Step 2951389 / 4001000 | TPS 316.346 | ETA 00:55:17
Time 02:20:15 | Step 2954555 / 4001000 | TPS 316.518 | ETA 00:55:06
Time 02:20:25 | Step 2957707 / 4001000 | TPS 315.171 | ETA 00:55:10
Time 02:20:35 | Step 2960857 / 4001000 | TPS 314.919 | ETA 00:55:02
Time 02:20:45 | Step 2964002 / 4001000 | TPS 314.475 | ETA 00:54:57
Time 02:20:55 | Step 2967147 / 4001000 | TPS 314.475 | ETA 00:54:47
Time 02:21:05 | Step 2970289 / 4001000 | TPS 314.196 | ETA 00:54:40
Time 02:21:15 | Step 2973435 / 4001000 | TPS 314.585 | ETA 00:54:26
Time 02:21:25 | Step 2976576 / 4001000 | TPS 314.012 | ETA 00:54:22
Time 02:21:35 | Step 2979716 / 4001000 | TPS 313.955 | ETA 00:54:12
Time 02:21:45 | Step 2982858 / 4001000 | TPS 314.196 | ETA 00:54:00
Time 02:21:55 | Step 2985998 / 4001000 | TPS 313.923 | ETA 00:53:53
Time 02:22:05 | Step 2989141 / 4001000 | TPS 314.287 | ETA 00:53:39
Time 02:22:15 | Step 2992296 / 4001000 | TPS 315.477 | ETA 00:53:17
Time 02:22:25 | Step 2995452 / 4001000 | TPS 315.582 | ETA 00:53:06
Time 02:22:35 | Step 2998607 / 4001000 | TPS 315.439 | ETA 00:52:57
Time 02:22:45 | Step 3001768 / 4001000 | TPS 315.834 | ETA 00:52:43
Time 02:22:55 | Step 3004927 / 4001000 | TPS 315.834 | ETA 00:52:33
Time 02:23:05 | Step 3007957 / 4001000 | TPS 302.939 | ETA 00:54:38
Time 02:23:15 | Step 3011106 / 4001000 | TPS 314.823 | ETA 00:52:24
Time 02:23:25 | Step 3014254 / 4001000 | TPS 314.73 | ETA 00:52:15
Time 02:23:35 | Step 3017410 / 4001000 | TPS 315.556 | ETA 00:51:57
Time 02:23:45 | Step 3020555 / 4001000 | TPS 314.418 | ETA 00:51:58
Time 02:23:55 | Step 3023703 / 4001000 | TPS 314.78 | ETA 00:51:44
Time 02:24:05 | Step 3026840 / 4001000 | TPS 313.626 | ETA 00:51:46
Time 02:24:15 | Step 3029981 / 4001000 | TPS 314.016 | ETA 00:51:32
Time 02:24:25 | Step 3033116 / 4001000 | TPS 313.493 | ETA 00:51:27
Time 02:24:35 | Step 3036256 / 4001000 | TPS 313.725 | ETA 00:51:15
Time 02:24:45 | Step 3039393 / 4001000 | TPS 313.687 | ETA 00:51:05
Time 02:24:55 | Step 3042529 / 4001000 | TPS 313.517 | ETA 00:50:57
Time 02:25:05 | Step 3045664 / 4001000 | TPS 313.409 | ETA 00:50:48
Time 02:25:15 | Step 3048798 / 4001000 | TPS 313.389 | ETA 00:50:38
Time 02:25:25 | Step 3051927 / 4001000 | TPS 312.879 | ETA 00:50:33
Time 02:25:35 | Step 3055046 / 4001000 | TPS 311.843 | ETA 00:50:33
Time 02:25:45 | Step 3058171 / 4001000 | TPS 312.427 | ETA 00:50:17
Time 02:25:55 | Step 3061304 / 4001000 | TPS 313.217 | ETA 00:50:00
Time 02:26:05 | Step 3064441 / 4001000 | TPS 313.696 | ETA 00:49:45
Time 02:26:15 | Step 3067583 / 4001000 | TPS 314.108 | ETA 00:49:31
Time 02:26:25 | Step 3070720 / 4001000 | TPS 313.624 | ETA 00:49:26
Time 02:26:35 | Step 3073864 / 4001000 | TPS 314.365 | ETA 00:49:09
Time 02:26:45 | Step 3077013 / 4001000 | TPS 314.826 | ETA 00:48:54
Time 02:26:55 | Step 3080158 / 4001000 | TPS 314.435 | ETA 00:48:48
Time 02:27:05 | Step 3083300 / 4001000 | TPS 314.128 | ETA 00:48:41
Time 02:27:15 | Step 3086439 / 4001000 | TPS 313.822 | ETA 00:48:34
Time 02:27:25 | Step 3089578 / 4001000 | TPS 313.84 | ETA 00:48:24
Time 02:27:35 | Step 3092716 / 4001000 | TPS 313.781 | ETA 00:48:14
Time 02:27:45 | Step 3095852 / 4001000 | TPS 313.521 | ETA 00:48:07
Time 02:27:55 | Step 3098989 / 4001000 | TPS 313.666 | ETA 00:47:55
Time 02:28:05 | Step 3102113 / 4001000 | TPS 312.32 | ETA 00:47:58
Time 02:28:15 | Step 3105234 / 4001000 | TPS 312.069 | ETA 00:47:50
Time 02:28:25 | Step 3108243 / 4001000 | TPS 300.823 | ETA 00:49:27
Time 02:28:35 | Step 3111384 / 4001000 | TPS 314.05 | ETA 00:47:12
Time 02:28:45 | Step 3114523 / 4001000 | TPS 313.834 | ETA 00:47:04
Time 02:28:55 | Step 3117662 / 4001000 | TPS 313.896 | ETA 00:46:54
Time 02:29:05 | Step 3120800 / 4001000 | TPS 313.746 | ETA 00:46:45
Time 02:29:15 | Step 3123938 / 4001000 | TPS 313.731 | ETA 00:46:35
Time 02:29:25 | Step 3127075 / 4001000 | TPS 313.631 | ETA 00:46:26
Time 02:29:35 | Step 3130211 / 4001000 | TPS 313.593 | ETA 00:46:16
Time 02:29:45 | Step 3133351 / 4001000 | TPS 313.933 | ETA 00:46:03
Time 02:29:55 | Step 3136491 / 4001000 | TPS 313.958 | ETA 00:45:53
Time 02:30:05 | Step 3139628 / 4001000 | TPS 313.645 | ETA 00:45:46
Time 02:30:15 | Step 3142765 / 4001000 | TPS 313.553 | ETA 00:45:37
Time 02:30:25 | Step 3145906 / 4001000 | TPS 314.033 | ETA 00:45:22
Time 02:30:35 | Step 3149043 / 4001000 | TPS 313.62 | ETA 00:45:16
Time 02:30:45 | Step 3152183 / 4001000 | TPS 313.919 | ETA 00:45:03
Time 02:30:55 | Step 3155323 / 4001000 | TPS 313.921 | ETA 00:44:53
Time 02:31:05 | Step 3158465 / 4001000 | TPS 314.143 | ETA 00:44:42
Time 02:31:15 | Step 3161608 / 4001000 | TPS 314.206 | ETA 00:44:31
Time 02:31:25 | Step 3164751 / 4001000 | TPS 314.291 | ETA 00:44:20
Time 02:31:35 | Step 3167890 / 4001000 | TPS 313.863 | ETA 00:44:14
Time 02:31:45 | Step 3171031 / 4001000 | TPS 314.04 | ETA 00:44:02
Time 02:31:55 | Step 3174168 / 4001000 | TPS 313.617 | ETA 00:43:56
Time 02:32:05 | Step 3177308 / 4001000 | TPS 313.938 | ETA 00:43:43
Time 02:32:15 | Step 3180444 / 4001000 | TPS 313.541 | ETA 00:43:37
Time 02:32:25 | Step 3183578 / 4001000 | TPS 313.373 | ETA 00:43:28
Time 02:32:35 | Step 3186720 / 4001000 | TPS 314.155 | ETA 00:43:11
Time 02:32:45 | Step 3189853 / 4001000 | TPS 313.274 | ETA 00:43:09
Time 02:32:55 | Step 3192990 / 4001000 | TPS 313.651 | ETA 00:42:56
Time 02:33:05 | Step 3195995 / 4001000 | TPS 300.436 | ETA 00:44:39
Time 02:33:15 | Step 3199123 / 4001000 | TPS 312.767 | ETA 00:42:43
Time 02:33:25 | Step 3202257 / 4001000 | TPS 313.384 | ETA 00:42:28
Time 02:33:35 | Step 3205392 / 4001000 | TPS 313.472 | ETA 00:42:18
Time 02:33:45 | Step 3208398 / 4001000 | TPS 300.599 | ETA 00:43:56
Time 02:33:55 | Step 3211521 / 4001000 | TPS 312.284 | ETA 00:42:08
Time 02:34:05 | Step 3214642 / 4001000 | TPS 312.055 | ETA 00:41:59
Time 02:34:15 | Step 3217770 / 4001000 | TPS 312.783 | ETA 00:41:44
Time 02:34:25 | Step 3220903 / 4001000 | TPS 313.282 | ETA 00:41:30
Time 02:34:35 | Step 3224034 / 4001000 | TPS 313.023 | ETA 00:41:22
Time 02:34:45 | Step 3227170 / 4001000 | TPS 313.532 | ETA 00:41:08
Time 02:34:55 | Step 3230312 / 4001000 | TPS 314.165 | ETA 00:40:53
Time 02:35:05 | Step 3233444 / 4001000 | TPS 313.142 | ETA 00:40:51
Time 02:35:15 | Step 3236584 / 4001000 | TPS 313.97 | ETA 00:40:34
Time 02:35:25 | Step 3239715 / 4001000 | TPS 313.079 | ETA 00:40:31
Time 02:35:35 | Step 3242755 / 4001000 | TPS 303.958 | ETA 00:41:34
Time 02:35:45 | Step 3245885 / 4001000 | TPS 312.951 | ETA 00:40:12
Time 02:35:55 | Step 3249012 / 4001000 | TPS 312.684 | ETA 00:40:04
Time 02:36:05 | Step 3252140 / 4001000 | TPS 312.769 | ETA 00:39:54
Time 02:36:15 | Step 3255266 / 4001000 | TPS 312.552 | ETA 00:39:45
Time 02:36:25 | Step 3258388 / 4001000 | TPS 312.157 | ETA 00:39:38
Time 02:36:35 | Step 3261512 / 4001000 | TPS 312.391 | ETA 00:39:27
Time 02:36:45 | Step 3264633 / 4001000 | TPS 312.044 | ETA 00:39:19
Time 02:36:55 | Step 3267749 / 4001000 | TPS 311.532 | ETA 00:39:13
Time 02:37:05 | Step 3270872 / 4001000 | TPS 312.246 | ETA 00:38:58
Time 02:37:15 | Step 3273994 / 4001000 | TPS 312.141 | ETA 00:38:49
Time 02:37:25 | Step 3277111 / 4001000 | TPS 311.659 | ETA 00:38:42
Time 02:37:35 | Step 3280232 / 4001000 | TPS 312.016 | ETA 00:38:30
Time 02:37:45 | Step 3283351 / 4001000 | TPS 311.894 | ETA 00:38:20
Time 02:37:55 | Step 3286471 / 4001000 | TPS 311.933 | ETA 00:38:10
Time 02:38:05 | Step 3289584 / 4001000 | TPS 311.242 | ETA 00:38:05
Time 02:38:15 | Step 3292705 / 4001000 | TPS 312.048 | ETA 00:37:49
Time 02:38:25 | Step 3295827 / 4001000 | TPS 312.122 | ETA 00:37:39
Time 02:38:35 | Step 3298954 / 4001000 | TPS 312.668 | ETA 00:37:25
Time 02:38:45 | Step 3302079 / 4001000 | TPS 312.451 | ETA 00:37:16
Time 02:38:55 | Step 3305202 / 4001000 | TPS 312.263 | ETA 00:37:08
Time 02:39:05 | Step 3308204 / 4001000 | TPS 300.128 | ETA 00:38:28
Time 02:39:15 | Step 3311334 / 4001000 | TPS 312.946 | ETA 00:36:43
Time 02:39:25 | Step 3314457 / 4001000 | TPS 312.248 | ETA 00:36:38
Time 02:39:35 | Step 3317582 / 4001000 | TPS 312.447 | ETA 00:36:27
Time 02:39:45 | Step 3320703 / 4001000 | TPS 312.042 | ETA 00:36:20
Time 02:39:55 | Step 3323826 / 4001000 | TPS 312.031 | ETA 00:36:10
Time 02:40:05 | Step 3326948 / 4001000 | TPS 312.105 | ETA 00:35:59
Time 02:40:15 | Step 3330067 / 4001000 | TPS 311.813 | ETA 00:35:51
Time 02:40:25 | Step 3333189 / 4001000 | TPS 312.186 | ETA 00:35:39
Time 02:40:35 | Step 3336300 / 4001000 | TPS 311.066 | ETA 00:35:36
Time 02:40:45 | Step 3339420 / 4001000 | TPS 311.984 | ETA 00:35:20
Time 02:40:55 | Step 3342541 / 4001000 | TPS 311.674 | ETA 00:35:12
Time 02:41:05 | Step 3345661 / 4001000 | TPS 311.978 | ETA 00:35:00
Time 02:41:15 | Step 3348780 / 4001000 | TPS 311.831 | ETA 00:34:51
Time 02:41:25 | Step 3351899 / 4001000 | TPS 311.847 | ETA 00:34:41
Time 02:41:35 | Step 3355017 / 4001000 | TPS 311.738 | ETA 00:34:32
Time 02:41:45 | Step 3358139 / 4001000 | TPS 312.115 | ETA 00:34:19
Time 02:41:55 | Step 3361257 / 4001000 | TPS 311.75 | ETA 00:34:12
Time 02:42:05 | Step 3364380 / 4001000 | TPS 312.245 | ETA 00:33:58
Time 02:42:15 | Step 3367494 / 4001000 | TPS 311.348 | ETA 00:33:54
Time 02:42:25 | Step 3370620 / 4001000 | TPS 312.534 | ETA 00:33:36
Time 02:42:35 | Step 3373749 / 4001000 | TPS 312.817 | ETA 00:33:25
Time 02:42:45 | Step 3376877 / 4001000 | TPS 312.74 | ETA 00:33:15
Time 02:42:55 | Step 3380011 / 4001000 | TPS 313.337 | ETA 00:33:01
Time 02:43:05 | Step 3383136 / 4001000 | TPS 312.479 | ETA 00:32:57
Time 02:43:15 | Step 3386273 / 4001000 | TPS 313.613 | ETA 00:32:40
Time 02:43:25 | Step 3389406 / 4001000 | TPS 313.217 | ETA 00:32:32
Time 02:43:35 | Step 3392540 / 4001000 | TPS 313.027 | ETA 00:32:23
Time 02:43:45 | Step 3395664 / 4001000 | TPS 312.321 | ETA 00:32:18
Time 02:43:55 | Step 3398812 / 4001000 | TPS 314.734 | ETA 00:31:53
Time 02:44:05 | Step 3401958 / 4001000 | TPS 314.507 | ETA 00:31:44
Time 02:44:15 | Step 3405010 / 4001000 | TPS 305.121 | ETA 00:32:33
Time 02:44:25 | Step 3407955 / 4001000 | TPS 294.413 | ETA 00:33:34
Time 02:44:35 | Step 3411021 / 4001000 | TPS 306.594 | ETA 00:32:04
Time 02:44:45 | Step 3414093 / 4001000 | TPS 307.108 | ETA 00:31:51
Time 02:44:55 | Step 3417154 / 4001000 | TPS 306.039 | ETA 00:31:47
Time 02:45:05 | Step 3420229 / 4001000 | TPS 307.424 | ETA 00:31:29
Time 02:45:15 | Step 3423355 / 4001000 | TPS 312.524 | ETA 00:30:48
Time 02:45:25 | Step 3426483 / 4001000 | TPS 312.731 | ETA 00:30:37
Time 02:45:35 | Step 3429599 / 4001000 | TPS 311.6 | ETA 00:30:33
Time 02:45:45 | Step 3432727 / 4001000 | TPS 312.355 | ETA 00:30:19
Time 02:45:55 | Step 3435854 / 4001000 | TPS 312.638 | ETA 00:30:07
Time 02:46:05 | Step 3438981 / 4001000 | TPS 312.644 | ETA 00:29:57
Time 02:46:15 | Step 3442108 / 4001000 | TPS 312.627 | ETA 00:29:47
Time 02:46:25 | Step 3445236 / 4001000 | TPS 312.736 | ETA 00:29:37
Time 02:46:35 | Step 3448364 / 4001000 | TPS 312.754 | ETA 00:29:27
Time 02:46:45 | Step 3451494 / 4001000 | TPS 312.936 | ETA 00:29:15
Time 02:46:55 | Step 3454633 / 4001000 | TPS 313.863 | ETA 00:29:00
Time 02:47:05 | Step 3457776 / 4001000 | TPS 314.222 | ETA 00:28:48
Time 02:47:15 | Step 3460921 / 4001000 | TPS 314.458 | ETA 00:28:37
Time 02:47:25 | Step 3464061 / 4001000 | TPS 313.928 | ETA 00:28:30
Time 02:47:35 | Step 3467203 / 4001000 | TPS 314.178 | ETA 00:28:19
Time 02:47:45 | Step 3470342 / 4001000 | TPS 313.9 | ETA 00:28:10
Time 02:47:55 | Step 3473478 / 4001000 | TPS 313.565 | ETA 00:28:02
Time 02:48:05 | Step 3476607 / 4001000 | TPS 312.834 | ETA 00:27:56
Time 02:48:15 | Step 3479727 / 4001000 | TPS 311.954 | ETA 00:27:50
Time 02:48:25 | Step 3482856 / 4001000 | TPS 312.848 | ETA 00:27:36
Time 02:48:35 | Step 3485985 / 4001000 | TPS 312.884 | ETA 00:27:26
Time 02:48:45 | Step 3489111 / 4001000 | TPS 312.583 | ETA 00:27:17
Time 02:48:55 | Step 3492236 / 4001000 | TPS 312.494 | ETA 00:27:08
Time 02:49:05 | Step 3495364 / 4001000 | TPS 312.792 | ETA 00:26:56
Time 02:49:15 | Step 3498492 / 4001000 | TPS 312.732 | ETA 00:26:46
Time 02:49:25 | Step 3501618 / 4001000 | TPS 312.594 | ETA 00:26:37
Time 02:49:35 | Step 3504744 / 4001000 | TPS 312.577 | ETA 00:26:27
Time 02:49:45 | Step 3507737 / 4001000 | TPS 299.293 | ETA 00:27:28
Time 02:49:55 | Step 3510863 / 4001000 | TPS 312.547 | ETA 00:26:08
Time 02:50:05 | Step 3513993 / 4001000 | TPS 312.945 | ETA 00:25:56
Time 02:50:15 | Step 3517119 / 4001000 | TPS 312.527 | ETA 00:25:48
Time 02:50:25 | Step 3520258 / 4001000 | TPS 313.805 | ETA 00:25:31
Time 02:50:35 | Step 3523386 / 4001000 | TPS 312.353 | ETA 00:25:29
Time 02:50:45 | Step 3526528 / 4001000 | TPS 314.127 | ETA 00:25:10
Time 02:50:55 | Step 3529673 / 4001000 | TPS 314.405 | ETA 00:24:59
Time 02:51:05 | Step 3532816 / 4001000 | TPS 314.277 | ETA 00:24:49
Time 02:51:15 | Step 3535950 / 4001000 | TPS 313.398 | ETA 00:24:43
Time 02:51:25 | Step 3539089 / 4001000 | TPS 313.829 | ETA 00:24:31
Time 02:51:35 | Step 3542221 / 4001000 | TPS 313.169 | ETA 00:24:24
Time 02:51:45 | Step 3545355 / 4001000 | TPS 313.389 | ETA 00:24:13
Time 02:51:55 | Step 3548479 / 4001000 | TPS 312.33 | ETA 00:24:08
Time 02:52:05 | Step 3551611 / 4001000 | TPS 313.117 | ETA 00:23:55
Time 02:52:15 | Step 3554745 / 4001000 | TPS 313.337 | ETA 00:23:44
Time 02:52:25 | Step 3557873 / 4001000 | TPS 312.761 | ETA 00:23:36
Time 02:52:35 | Step 3561001 / 4001000 | TPS 312.726 | ETA 00:23:26
Time 02:52:45 | Step 3564131 / 4001000 | TPS 312.996 | ETA 00:23:15
Time 02:52:55 | Step 3567258 / 4001000 | TPS 312.626 | ETA 00:23:07
Time 02:53:05 | Step 3570384 / 4001000 | TPS 312.572 | ETA 00:22:57
Time 02:53:15 | Step 3573502 / 4001000 | TPS 311.742 | ETA 00:22:51
Time 02:53:25 | Step 3576627 / 4001000 | TPS 312.442 | ETA 00:22:38
Time 02:53:35 | Step 3579752 / 4001000 | TPS 312.458 | ETA 00:22:28
Time 02:53:45 | Step 3582873 / 4001000 | TPS 312.022 | ETA 00:22:20
Time 02:53:55 | Step 3586004 / 4001000 | TPS 313.082 | ETA 00:22:05
Time 02:54:05 | Step 3589135 / 4001000 | TPS 313.036 | ETA 00:21:55
Time 02:54:15 | Step 3592271 / 4001000 | TPS 313.528 | ETA 00:21:43
Time 02:54:25 | Step 3595412 / 4001000 | TPS 314.049 | ETA 00:21:31
Time 02:54:35 | Step 3598560 / 4001000 | TPS 314.761 | ETA 00:21:18
Time 02:54:45 | Step 3601707 / 4001000 | TPS 314.678 | ETA 00:21:08
Time 02:54:55 | Step 3604854 / 4001000 | TPS 314.653 | ETA 00:20:58
Time 02:55:05 | Step 3607884 / 4001000 | TPS 302.684 | ETA 00:21:38
Time 02:55:15 | Step 3611026 / 4001000 | TPS 314.154 | ETA 00:20:41
Time 02:55:25 | Step 3614186 / 4001000 | TPS 315.945 | ETA 00:20:24
Time 02:55:35 | Step 3617335 / 4001000 | TPS 314.843 | ETA 00:20:18
Time 02:55:45 | Step 3620486 / 4001000 | TPS 315.076 | ETA 00:20:07
Time 02:55:55 | Step 3623639 / 4001000 | TPS 315.232 | ETA 00:19:57
Time 02:56:05 | Step 3626786 / 4001000 | TPS 314.681 | ETA 00:19:49
Time 02:56:15 | Step 3629935 / 4001000 | TPS 314.868 | ETA 00:19:38
Time 02:56:25 | Step 3633084 / 4001000 | TPS 314.819 | ETA 00:19:28
Time 02:56:35 | Step 3636232 / 4001000 | TPS 314.75 | ETA 00:19:18
Time 02:56:45 | Step 3639379 / 4001000 | TPS 314.682 | ETA 00:19:09
Time 02:56:55 | Step 3642520 / 4001000 | TPS 314.049 | ETA 00:19:01
Time 02:57:05 | Step 3645662 / 4001000 | TPS 314.172 | ETA 00:18:51
Time 02:57:15 | Step 3648804 / 4001000 | TPS 314.142 | ETA 00:18:41
Time 02:57:25 | Step 3651949 / 4001000 | TPS 314.447 | ETA 00:18:30
Time 02:57:35 | Step 3655089 / 4001000 | TPS 313.912 | ETA 00:18:21
Time 02:57:45 | Step 3658228 / 4001000 | TPS 313.854 | ETA 00:18:12
Time 02:57:55 | Step 3661371 / 4001000 | TPS 314.22 | ETA 00:18:00
Time 02:58:05 | Step 3664510 / 4001000 | TPS 313.807 | ETA 00:17:52
Time 02:58:15 | Step 3667650 / 4001000 | TPS 313.955 | ETA 00:17:41
Time 02:58:25 | Step 3670792 / 4001000 | TPS 314.179 | ETA 00:17:31
Time 02:58:35 | Step 3673931 / 4001000 | TPS 313.873 | ETA 00:17:22
Time 02:58:45 | Step 3677074 / 4001000 | TPS 314.264 | ETA 00:17:10
Time 02:58:55 | Step 3680220 / 4001000 | TPS 314.543 | ETA 00:16:59
Time 02:59:05 | Step 3683371 / 4001000 | TPS 315.004 | ETA 00:16:48
Time 02:59:15 | Step 3686524 / 4001000 | TPS 315.226 | ETA 00:16:37
Time 02:59:25 | Step 3689681 / 4001000 | TPS 315.658 | ETA 00:16:26
Time 02:59:35 | Step 3692838 / 4001000 | TPS 315.689 | ETA 00:16:16
Time 02:59:45 | Step 3695995 / 4001000 | TPS 315.661 | ETA 00:16:06
Time 02:59:55 | Step 3699152 / 4001000 | TPS 315.621 | ETA 00:15:56
Time 03:00:05 | Step 3702310 / 4001000 | TPS 315.781 | ETA 00:15:45
Time 03:00:15 | Step 3705457 / 4001000 | TPS 314.636 | ETA 00:15:39
Time 03:00:25 | Step 3708467 / 4001000 | TPS 300.997 | ETA 00:16:11
Time 03:00:35 | Step 3711616 / 4001000 | TPS 314.856 | ETA 00:15:19
Time 03:00:45 | Step 3714758 / 4001000 | TPS 314.168 | ETA 00:15:11
Time 03:00:55 | Step 3717901 / 4001000 | TPS 314.269 | ETA 00:15:00
Time 03:01:05 | Step 3721051 / 4001000 | TPS 314.971 | ETA 00:14:48
Time 03:01:15 | Step 3724193 / 4001000 | TPS 314.13 | ETA 00:14:41
Time 03:01:25 | Step 3727335 / 4001000 | TPS 314.126 | ETA 00:14:31
Time 03:01:35 | Step 3730480 / 4001000 | TPS 314.5 | ETA 00:14:20
Time 03:01:45 | Step 3733627 / 4001000 | TPS 314.642 | ETA 00:14:09
Time 03:01:55 | Step 3736770 / 4001000 | TPS 314.243 | ETA 00:14:00
Time 03:02:05 | Step 3739916 / 4001000 | TPS 314.572 | ETA 00:13:49
Time 03:02:15 | Step 3743061 / 4001000 | TPS 314.492 | ETA 00:13:40
Time 03:02:25 | Step 3746206 / 4001000 | TPS 314.466 | ETA 00:13:30
Time 03:02:35 | Step 3749351 / 4001000 | TPS 314.483 | ETA 00:13:20
Time 03:02:45 | Step 3752500 / 4001000 | TPS 314.837 | ETA 00:13:09
Time 03:02:55 | Step 3755649 / 4001000 | TPS 314.887 | ETA 00:12:59
Time 03:03:05 | Step 3758794 / 4001000 | TPS 314.464 | ETA 00:12:50
Time 03:03:15 | Step 3761940 / 4001000 | TPS 314.591 | ETA 00:12:39
Time 03:03:25 | Step 3765089 / 4001000 | TPS 314.899 | ETA 00:12:29
Time 03:03:35 | Step 3768241 / 4001000 | TPS 315.107 | ETA 00:12:18
Time 03:03:45 | Step 3771394 / 4001000 | TPS 315.213 | ETA 00:12:08
Time 03:03:55 | Step 3774553 / 4001000 | TPS 315.811 | ETA 00:11:57
Time 03:04:05 | Step 3777715 / 4001000 | TPS 316.122 | ETA 00:11:46
Time 03:04:15 | Step 3780868 / 4001000 | TPS 315.263 | ETA 00:11:38
Time 03:04:25 | Step 3784020 / 4001000 | TPS 315.172 | ETA 00:11:28
Time 03:04:35 | Step 3787178 / 4001000 | TPS 315.78 | ETA 00:11:17
Time 03:04:45 | Step 3790341 / 4001000 | TPS 316.266 | ETA 00:11:06
Time 03:04:55 | Step 3793495 / 4001000 | TPS 315.336 | ETA 00:10:58
Time 03:05:05 | Step 3796651 / 4001000 | TPS 315.519 | ETA 00:10:47
Time 03:05:15 | Step 3799803 / 4001000 | TPS 315.035 | ETA 00:10:38
Time 03:05:25 | Step 3802956 / 4001000 | TPS 315.203 | ETA 00:10:28
Time 03:05:35 | Step 3806101 / 4001000 | TPS 314.415 | ETA 00:10:19
Time 03:05:45 | Step 3809105 / 4001000 | TPS 300.318 | ETA 00:10:38
Time 03:05:55 | Step 3812249 / 4001000 | TPS 314.328 | ETA 00:10:00
Time 03:06:05 | Step 3815393 / 4001000 | TPS 314.33 | ETA 00:09:50
Time 03:06:15 | Step 3818535 / 4001000 | TPS 314.181 | ETA 00:09:40
Time 03:06:25 | Step 3821681 / 4001000 | TPS 314.546 | ETA 00:09:30
Time 03:06:35 | Step 3824815 / 4001000 | TPS 313.354 | ETA 00:09:22
Time 03:06:45 | Step 3827952 / 4001000 | TPS 313.674 | ETA 00:09:11
Time 03:06:55 | Step 3831081 / 4001000 | TPS 312.835 | ETA 00:09:03
Time 03:07:05 | Step 3834210 / 4001000 | TPS 312.834 | ETA 00:08:53
Time 03:07:15 | Step 3837343 / 4001000 | TPS 313.209 | ETA 00:08:42
Time 03:07:25 | Step 3840472 / 4001000 | TPS 312.847 | ETA 00:08:33
Time 03:07:35 | Step 3843605 / 4001000 | TPS 313.271 | ETA 00:08:22
Time 03:07:45 | Step 3846740 / 4001000 | TPS 313.426 | ETA 00:08:12
Time 03:07:55 | Step 3849887 / 4001000 | TPS 314.648 | ETA 00:08:00
Time 03:08:05 | Step 3853031 / 4001000 | TPS 314.354 | ETA 00:07:50
Time 03:08:15 | Step 3856164 / 4001000 | TPS 313.256 | ETA 00:07:42
Time 03:08:25 | Step 3859315 / 4001000 | TPS 315.082 | ETA 00:07:29
Time 03:08:35 | Step 3862474 / 4001000 | TPS 315.477 | ETA 00:07:19
Time 03:08:45 | Step 3865626 / 4001000 | TPS 315.108 | ETA 00:07:09
Time 03:08:55 | Step 3868774 / 4001000 | TPS 314.798 | ETA 00:07:00
Time 03:09:05 | Step 3871923 / 4001000 | TPS 314.856 | ETA 00:06:49
Time 03:09:15 | Step 3875066 / 4001000 | TPS 314.218 | ETA 00:06:40
Time 03:09:25 | Step 3878211 / 4001000 | TPS 314.34 | ETA 00:06:30
Time 03:09:35 | Step 3881357 / 4001000 | TPS 314.539 | ETA 00:06:20
Time 03:09:45 | Step 3884496 / 4001000 | TPS 313.813 | ETA 00:06:11
Time 03:09:55 | Step 3887637 / 4001000 | TPS 313.746 | ETA 00:06:01
Time 03:10:05 | Step 3890778 / 4001000 | TPS 314.094 | ETA 00:05:50
Time 03:10:15 | Step 3893919 / 4001000 | TPS 314.08 | ETA 00:05:40
Time 03:10:25 | Step 3897063 / 4001000 | TPS 314.371 | ETA 00:05:30
Time 03:10:35 | Step 3900160 / 4001000 | TPS 309.671 | ETA 00:05:25
Time 03:10:45 | Step 3903295 / 4001000 | TPS 313.446 | ETA 00:05:11
Time 03:10:55 | Step 3906435 / 4001000 | TPS 313.916 | ETA 00:05:01
Time 03:11:05 | Step 3909436 / 4001000 | TPS 300.072 | ETA 00:05:05
Time 03:11:15 | Step 3912575 / 4001000 | TPS 313.843 | ETA 00:04:41
Time 03:11:25 | Step 3915713 / 4001000 | TPS 313.766 | ETA 00:04:31
Time 03:11:35 | Step 3918851 / 4001000 | TPS 313.759 | ETA 00:04:21
Time 03:11:45 | Step 3921989 / 4001000 | TPS 313.792 | ETA 00:04:11
Time 03:11:55 | Step 3925127 / 4001000 | TPS 313.76 | ETA 00:04:01
Time 03:12:05 | Step 3928270 / 4001000 | TPS 314.224 | ETA 00:03:51
Time 03:12:15 | Step 3931416 / 4001000 | TPS 314.574 | ETA 00:03:41
Time 03:12:25 | Step 3934564 / 4001000 | TPS 314.768 | ETA 00:03:31
Time 03:12:35 | Step 3937722 / 4001000 | TPS 315.758 | ETA 00:03:20
Time 03:12:45 | Step 3940881 / 4001000 | TPS 315.861 | ETA 00:03:10
Time 03:12:55 | Step 3944042 / 4001000 | TPS 316.014 | ETA 00:03:00
Time 03:13:05 | Step 3947188 / 4001000 | TPS 314.541 | ETA 00:02:51
Time 03:13:15 | Step 3950345 / 4001000 | TPS 315.673 | ETA 00:02:40
Time 03:13:25 | Step 3953508 / 4001000 | TPS 316.288 | ETA 00:02:30
Time 03:13:35 | Step 3956669 / 4001000 | TPS 316.017 | ETA 00:02:20
Time 03:13:45 | Step 3959834 / 4001000 | TPS 316.406 | ETA 00:02:10
Time 03:13:55 | Step 3962994 / 4001000 | TPS 315.95 | ETA 00:02:00
Time 03:14:05 | Step 3966149 / 4001000 | TPS 315.455 | ETA 00:01:50
Time 03:14:15 | Step 3969307 / 4001000 | TPS 315.78 | ETA 00:01:40
Time 03:14:25 | Step 3972459 / 4001000 | TPS 315.124 | ETA 00:01:30
Time 03:14:35 | Step 3975618 / 4001000 | TPS 315.819 | ETA 00:01:20
Time 03:14:45 | Step 3978776 / 4001000 | TPS 315.778 | ETA 00:01:10
Time 03:14:55 | Step 3981937 / 4001000 | TPS 316.079 | ETA 00:01:00
Time 03:15:05 | Step 3985098 / 4001000 | TPS 316.074 | ETA 00:00:50
Time 03:15:15 | Step 3988263 / 4001000 | TPS 316.407 | ETA 00:00:40
Time 03:15:25 | Step 3991435 / 4001000 | TPS 317.128 | ETA 00:00:30
Time 03:15:35 | Step 3994607 / 4001000 | TPS 317.196 | ETA 00:00:20
Time 03:15:45 | Step 3997773 / 4001000 | TPS 316.543 | ETA 00:00:10
Time 03:15:55 | Step 4000963 / 4001000 | TPS 318.983 | ETA 00:00:00
Time 03:15:56 | Step 4001000 / 4001000 | TPS 320.482 | ETA 00:00:00
Average TPS: 323.031
---------
-- Neighborlist stats:
28073 normal updates / 1 forced updates / 0 dangerous updates
n_neigh_min: 0 / n_neigh_max: 295 / n_neigh_avg: 235.463
shortest rebuild period: 38
-- Cell list stats:
Dimension: 15, 15, 17
n_min    : 0 / n_max: 77 / n_avg: 14.1176
** run complete **
benchmark.py:035  |          hoomd.run(steps, limit_hours=limit_hours);
** starting run **
Time 03:16:06 | Step 4004194 / 4071000 | TPS 319.347 | ETA 00:03:29
notice(2): Ending run at time step 4007385 as 0.00555556 hours have passed
Time 03:16:16 | Step 4007385 / 4071000 | TPS 319.111 | ETA 00:03:19
Average TPS: 319.228
---------
-- Neighborlist stats:
6 normal updates / 1 forced updates / 0 dangerous updates
n_neigh_min: 0 / n_neigh_max: 295 / n_neigh_avg: 235.529
shortest rebuild period: 99
-- Cell list stats:
Dimension: 15, 15, 17
n_min    : 0 / n_max: 78 / n_avg: 14.1176
** run complete **
benchmark.py:035  |          hoomd.run(steps, limit_hours=limit_hours);
** starting run **
Time 03:16:26 | Step 4010436 / 4077385 | TPS 305.064 | ETA 00:03:39
notice(2): Ending run at time step 4013630 as 0.00555556 hours have passed
Time 03:16:36 | Step 4013630 / 4077385 | TPS 319.352 | ETA 00:03:19
Average TPS: 312.207
---------
-- Neighborlist stats:
2 normal updates / 1 forced updates / 0 dangerous updates
n_neigh_min: 0 / n_neigh_max: 295 / n_neigh_avg: 235.494
shortest rebuild period: 99
-- Cell list stats:
Dimension: 15, 15, 17
n_min    : 0 / n_max: 78 / n_avg: 14.1176
** run complete **
benchmark.py:035  |          hoomd.run(steps, limit_hours=limit_hours);
** starting run **
Time 03:16:46 | Step 4016816 / 4083630 | TPS 318.528 | ETA 00:03:29
notice(2): Ending run at time step 4019994 as 0.00555556 hours have passed
Time 03:16:56 | Step 4019994 / 4083630 | TPS 317.849 | ETA 00:03:20
Average TPS: 318.188
---------
-- Neighborlist stats:
12 normal updates / 1 forced updates / 0 dangerous updates
n_neigh_min: 0 / n_neigh_max: 295 / n_neigh_avg: 235.483
shortest rebuild period: 99
-- Cell list stats:
Dimension: 15, 15, 17
n_min    : 0 / n_max: 77 / n_avg: 14.1176
** run complete **
benchmark.py:035  |          hoomd.run(steps, limit_hours=limit_hours);
** starting run **
Time 03:17:06 | Step 4023183 / 4089994 | TPS 318.854 | ETA 00:03:29
notice(2): Ending run at time step 4026390 as 0.00555556 hours have passed
Time 03:17:16 | Step 4026390 / 4089994 | TPS 320.664 | ETA 00:03:18
Average TPS: 319.758
---------
-- Neighborlist stats:
9 normal updates / 1 forced updates / 0 dangerous updates
n_neigh_min: 0 / n_neigh_max: 295 / n_neigh_avg: 235.498
shortest rebuild period: 99
-- Cell list stats:
Dimension: 15, 15, 17
n_min    : 0 / n_max: 77 / n_avg: 14.1176
** run complete **
Hours to complete 10e6 steps: 8.75316672212
benchmark.py:099  |  meta.dump_metadata(filename = workspace+"/metadata.json", user = {'mps': ptps, 'tps': tps});
----------------------------------------
PBS job ended
Begin PBS Epilogue Thu Feb  8 21:16:15 CST 2018 1518146175
JobID: 22515791.qsched03.quest.it.northwestern.edu
Session ID:			19531
Resources Used:			cput=03:17:17,energy_used=0,mem=274280kb,vmem=157042372kb,walltime=03:17:23
Job exit value:			0
----------------------------------------
