----------------------------------------
PBS: Begin PBS Prologue Fri Feb  9 14:28:57 CST 2018 1518208137
PBS: Job ID:		22520759.qsched03.quest.it.northwestern.edu
PBS: Username:		jam119
PBS: Group:		jam119
PBS: Executing queue:     buyin
PBS: Job name:		test-bench
PBS: Account:		b1030
----------------------------------------
   The following variables are not
   guaranteed to be the same in 
   prologue and the job run script  
----------------------------------------
PBS: Temporary Dir($TMPDIR):	/tmp/22520759.qsched03.quest.it.northwestern.edu
PBS: Master Node($PBS_MSHOST):		qgpu6004
PBS: node file($PBS_NODEFILE):  /hpc/opt/torque6/nodes/qgpu6004/aux//22520759.qsched03.quest.it.northwestern.edu
PBS: PATH (in prologue) : /bin:/usr/bin
PBS: WORKDIR ($PBS_O_WORKDIR) is:  /projects/b1021/Jaime_pmf/test-wall/warp_reduce/250000_par
----------------------------------------
PBS: End PBS Prologue Fri Feb  9 14:28:57 CST 2018 1518208137
HOOMD-blue v2.1.8-722-gde67388 CUDA (7.5) SINGLE SSE SSE2 
Compiled: 02/07/2018
Copyright 2009-2017 The Regents of the University of Michigan.
-----
You are using HOOMD-blue. Please cite the following:
* J A Anderson, C D Lorenz, and A Travesset. "General purpose molecular dynamics
  simulations fully implemented on graphics processing units", Journal of
  Computational Physics 227 (2008) 5342--5359
* J Glaser, T D Nguyen, J A Anderson, P Liu, F Spiga, J A Millan, D C Morse, and
  S C Glotzer. "Strong scaling of general-purpose molecular dynamics simulations
  on GPUs", Computer Physics Communications 192 (2015) 97--107
-----
HOOMD-blue is running on the following GPU(s):
 [0]             Tesla K80  13 SM_3.7 @ 0.823 GHz, 11439 MiB DRAM
benchmark.py:029  |  system = deprecated.init.read_xml("250000.xml")
notice(2): Reading 250000.xml...
notice(2): --- hoomd_xml file read summary
notice(2): 250000 positions at timestep 0
notice(2): 250000 masses
notice(2): 250000 diameters
notice(2): 2 particle types
notice(2): 250000 particle body values
notice(2): 250000 charges
notice(2): Group "all" created containing 250000 particles
benchmark.py:030  |  group_A = group.type(name='a-particles', type = 'A')
notice(2): Group "a-particles" created containing 249999 particles
benchmark.py:033  |  nl =nlist.cell()
benchmark.py:034  |  c.sorter.disable()
benchmark.py:035  |  slj= pair.slj(r_cut = 3.5, nlist=nl)
notice(2): Notice: slj set d_max=1.0
benchmark.py:036  |  slj.set_params(mode="shift")
pair.py:801  |          pair.set_params(self, mode=mode);
benchmark.py:037  |  slj.pair_coeff.set('A','A' , epsilon=1.0, sigma=1.0 )
benchmark.py:038  |  slj.pair_coeff.set('A','B' , epsilon=0.0, sigma=1.0 )
benchmark.py:039  |  slj.pair_coeff.set('B','B' , epsilon=0.0, sigma=1.0 )
benchmark.py:049  |  wall_force_slj=wall.lj(walls, r_cut=4.0,active_planes=[0,1])
benchmark.py:050  |  wall_force_slj.force_coeff.set('A', epsilon= 1.5,r_cut=4,sigma=sigma,r_extrap = 0.05)
benchmark.py:051  |  wall_force_slj.force_coeff.set('B', epsilon= 0,r_cut=4,sigma=sigma,r_extrap = 0.05)
benchmark.py:063  |  logger = analyze.log(quantities=['temperature' , 'potential_energy', 'kinetic_energy'],
												 period=5e2, filename='log.log', overwrite=True)
benchmark.py:070  |  integrate.mode_standard(dt=0.001)
benchmark.py:073  |  integrator = integrate.nve(group_A , limit = 0.0001)
benchmark.py:074  |  zero = update.zero_momentum(period =100)
benchmark.py:076  |  run(1e3)
notice(2): -- Neighborlist exclusion statistics -- :
notice(2): Particles with 0 exclusions             : 250000
notice(2): Neighbors included by diameter          : yes
notice(2): Neighbors excluded when in the same body: no
** starting run **
Time 00:00:07 | Step 1000 / 1000 | TPS 208.881 | ETA 00:00:00
Average TPS: 208.877
---------
-- Neighborlist stats:
0 normal updates / 0 forced updates / 0 dangerous updates
n_neigh_min: 33 / n_neigh_max: 58 / n_neigh_avg: 57.16
shortest rebuild period: 100
-- Cell list stats:
Dimension: 25, 25, 28
n_min    : 0 / n_max: 26 / n_avg: 14.2857
** run complete **
benchmark.py:077  |  integrator.disable()
benchmark.py:078  |  zero.disable()
benchmark.py:085  |  integrator = integrate.nvt(group=group_A , tau = 0.65 , kT = 0.001)
benchmark.py:086  |  integrator.set_params(kT=variant.linear_interp(points=[(0, logger.query('temperature')), (2e6, 0.75)]))
benchmark.py:088  |  run(2e6)
** starting run **
Time 00:00:21 | Step 4345 / 2001000 | TPS 334.467 | ETA 01:39:29
Time 00:00:31 | Step 7704 / 2001000 | TPS 333.398 | ETA 01:39:38
Time 00:00:41 | Step 10984 / 2001000 | TPS 327.984 | ETA 01:41:07
Time 00:00:51 | Step 14275 / 2001000 | TPS 329.054 | ETA 01:40:37
Time 00:01:01 | Step 17514 / 2001000 | TPS 323.883 | ETA 01:42:04
Time 00:01:11 | Step 20631 / 2001000 | TPS 311.691 | ETA 01:45:53
Time 00:01:21 | Step 23536 / 2001000 | TPS 290.491 | ETA 01:53:27
Time 00:01:31 | Step 26319 / 2001000 | TPS 278.286 | ETA 01:58:15
Time 00:01:41 | Step 28983 / 2001000 | TPS 266.326 | ETA 02:03:24
Time 00:01:51 | Step 31473 / 2001000 | TPS 249 | ETA 02:11:49
Time 00:02:01 | Step 33823 / 2001000 | TPS 234.915 | ETA 02:19:33
Time 00:02:11 | Step 36057 / 2001000 | TPS 223.356 | ETA 02:26:37
Time 00:02:21 | Step 38235 / 2001000 | TPS 217.751 | ETA 02:30:13
Time 00:02:31 | Step 40319 / 2001000 | TPS 208.37 | ETA 02:36:49
Time 00:02:41 | Step 42338 / 2001000 | TPS 201.89 | ETA 02:41:41
Time 00:02:51 | Step 44343 / 2001000 | TPS 200.409 | ETA 02:42:43
Time 00:03:01 | Step 46240 / 2001000 | TPS 189.646 | ETA 02:51:47
Time 00:03:11 | Step 48123 / 2001000 | TPS 188.297 | ETA 02:52:51
Time 00:03:21 | Step 49894 / 2001000 | TPS 177.015 | ETA 03:03:42
Time 00:03:31 | Step 51691 / 2001000 | TPS 179.647 | ETA 03:00:50
Time 00:03:41 | Step 53420 / 2001000 | TPS 172.825 | ETA 03:07:49
Time 00:03:51 | Step 55137 / 2001000 | TPS 171.66 | ETA 03:08:55
Time 00:04:01 | Step 56800 / 2001000 | TPS 166.272 | ETA 03:14:52
Time 00:04:11 | Step 58459 / 2001000 | TPS 165.85 | ETA 03:15:12
Time 00:04:21 | Step 60086 / 2001000 | TPS 162.677 | ETA 03:18:51
Time 00:04:31 | Step 61698 / 2001000 | TPS 159.868 | ETA 03:22:10
Time 00:04:41 | Step 63290 / 2001000 | TPS 159.185 | ETA 03:22:52
Time 00:04:51 | Step 64861 / 2001000 | TPS 157.04 | ETA 03:25:28
Time 00:05:01 | Step 66413 / 2001000 | TPS 155.151 | ETA 03:27:49
Time 00:05:11 | Step 67935 / 2001000 | TPS 152.128 | ETA 03:31:46
Time 00:05:21 | Step 69456 / 2001000 | TPS 152.026 | ETA 03:31:45
Time 00:05:31 | Step 70967 / 2001000 | TPS 151.069 | ETA 03:32:55
Time 00:05:41 | Step 72439 / 2001000 | TPS 147.2 | ETA 03:38:21
Time 00:05:51 | Step 73933 / 2001000 | TPS 149.357 | ETA 03:35:02
Time 00:06:01 | Step 75365 / 2001000 | TPS 143.173 | ETA 03:44:09
Time 00:06:11 | Step 76827 / 2001000 | TPS 146.147 | ETA 03:39:26
Time 00:06:21 | Step 78241 / 2001000 | TPS 141.373 | ETA 03:46:40
Time 00:06:31 | Step 79675 / 2001000 | TPS 143.365 | ETA 03:43:21
Time 00:06:41 | Step 81075 / 2001000 | TPS 139.946 | ETA 03:48:39
Time 00:06:51 | Step 82475 / 2001000 | TPS 139.972 | ETA 03:48:26
Time 00:07:01 | Step 83848 / 2001000 | TPS 137.223 | ETA 03:52:51
Time 00:07:11 | Step 85211 / 2001000 | TPS 136.283 | ETA 03:54:17
Time 00:07:21 | Step 86578 / 2001000 | TPS 136.647 | ETA 03:53:29
Time 00:07:31 | Step 87917 / 2001000 | TPS 133.89 | ETA 03:58:08
Time 00:07:41 | Step 89266 / 2001000 | TPS 134.844 | ETA 03:56:17
Time 00:07:51 | Step 90592 / 2001000 | TPS 132.56 | ETA 04:00:11
Time 00:08:01 | Step 91921 / 2001000 | TPS 132.886 | ETA 03:59:26
Time 00:08:11 | Step 93248 / 2001000 | TPS 132.647 | ETA 03:59:42
Time 00:08:21 | Step 94543 / 2001000 | TPS 129.496 | ETA 04:05:22
Time 00:08:31 | Step 95853 / 2001000 | TPS 130.978 | ETA 04:02:25
Time 00:08:41 | Step 97156 / 2001000 | TPS 130.216 | ETA 04:03:40
Time 00:08:51 | Step 98397 / 2001000 | TPS 124.057 | ETA 04:15:36
Time 00:09:01 | Step 99681 / 2001000 | TPS 128.363 | ETA 04:06:52
Time 00:09:11 | Step 100935 / 2001000 | TPS 125.375 | ETA 04:12:35
Time 00:09:21 | Step 102081 / 2001000 | TPS 114.532 | ETA 04:36:19
Time 00:09:31 | Step 103354 / 2001000 | TPS 127.25 | ETA 04:08:32
Time 00:09:41 | Step 104592 / 2001000 | TPS 123.768 | ETA 04:15:22
Time 00:09:51 | Step 105864 / 2001000 | TPS 127.168 | ETA 04:08:22
Time 00:10:01 | Step 107114 / 2001000 | TPS 124.956 | ETA 04:12:36
Time 00:10:11 | Step 108357 / 2001000 | TPS 124.297 | ETA 04:13:46
Time 00:10:21 | Step 109619 / 2001000 | TPS 126.131 | ETA 04:09:55
Time 00:10:31 | Step 110843 / 2001000 | TPS 122.109 | ETA 04:17:59
Time 00:10:41 | Step 112094 / 2001000 | TPS 125.047 | ETA 04:11:45
Time 00:10:51 | Step 113339 / 2001000 | TPS 124.497 | ETA 04:12:42
Time 00:11:01 | Step 114548 / 2001000 | TPS 120.853 | ETA 04:20:09
Time 00:11:11 | Step 115785 / 2001000 | TPS 123.651 | ETA 04:14:06
Time 00:11:21 | Step 117013 / 2001000 | TPS 122.762 | ETA 04:15:46
Time 00:11:31 | Step 118242 / 2001000 | TPS 122.845 | ETA 04:15:26
Time 00:11:41 | Step 119464 / 2001000 | TPS 122.156 | ETA 04:16:42
Time 00:11:51 | Step 120679 / 2001000 | TPS 121.487 | ETA 04:17:57
Time 00:12:01 | Step 121893 / 2001000 | TPS 121.309 | ETA 04:18:10
Time 00:12:11 | Step 123097 / 2001000 | TPS 120.337 | ETA 04:20:05
Time 00:12:21 | Step 124300 / 2001000 | TPS 120.203 | ETA 04:20:12
Time 00:12:31 | Step 125495 / 2001000 | TPS 119.406 | ETA 04:21:47
Time 00:12:41 | Step 126686 / 2001000 | TPS 119.096 | ETA 04:22:17
Time 00:12:51 | Step 127871 / 2001000 | TPS 118.471 | ETA 04:23:30
Time 00:13:01 | Step 129054 / 2001000 | TPS 118.286 | ETA 04:23:45
Time 00:13:11 | Step 130229 / 2001000 | TPS 117.409 | ETA 04:25:33
Time 00:13:21 | Step 131399 / 2001000 | TPS 116.964 | ETA 04:26:24
Time 00:13:31 | Step 132568 / 2001000 | TPS 116.845 | ETA 04:26:30
Time 00:13:41 | Step 133729 / 2001000 | TPS 116.029 | ETA 04:28:13
Time 00:13:51 | Step 134890 / 2001000 | TPS 116.02 | ETA 04:28:04
Time 00:14:01 | Step 136043 / 2001000 | TPS 115.243 | ETA 04:29:42
Time 00:14:11 | Step 137199 / 2001000 | TPS 115.577 | ETA 04:28:45
Time 00:14:21 | Step 138347 / 2001000 | TPS 114.784 | ETA 04:30:27
Time 00:14:31 | Step 139492 / 2001000 | TPS 114.46 | ETA 04:31:03
Time 00:14:41 | Step 140629 / 2001000 | TPS 113.688 | ETA 04:32:43
Time 00:14:51 | Step 141765 / 2001000 | TPS 113.52 | ETA 04:32:58
Time 00:15:01 | Step 142900 / 2001000 | TPS 113.428 | ETA 04:33:01
Time 00:15:11 | Step 144032 / 2001000 | TPS 113.174 | ETA 04:33:28
Time 00:15:21 | Step 145162 / 2001000 | TPS 112.964 | ETA 04:33:48
Time 00:15:31 | Step 146286 / 2001000 | TPS 112.36 | ETA 04:35:06
Time 00:15:41 | Step 147412 / 2001000 | TPS 112.55 | ETA 04:34:29
Time 00:15:51 | Step 148533 / 2001000 | TPS 112.007 | ETA 04:35:38
Time 00:16:01 | Step 149656 / 2001000 | TPS 112.22 | ETA 04:34:57
Time 00:16:11 | Step 150773 / 2001000 | TPS 111.625 | ETA 04:36:15
Time 00:16:21 | Step 151895 / 2001000 | TPS 112.198 | ETA 04:34:40
Time 00:16:31 | Step 153012 / 2001000 | TPS 111.64 | ETA 04:35:53
Time 00:16:41 | Step 154127 / 2001000 | TPS 111.408 | ETA 04:36:17
Time 00:16:51 | Step 155237 / 2001000 | TPS 110.912 | ETA 04:37:21
Time 00:17:01 | Step 156350 / 2001000 | TPS 111.257 | ETA 04:36:20
Time 00:17:11 | Step 157457 / 2001000 | TPS 110.607 | ETA 04:37:47
Time 00:17:21 | Step 158561 / 2001000 | TPS 110.315 | ETA 04:38:21
Time 00:17:31 | Step 159661 / 2001000 | TPS 109.908 | ETA 04:39:13
Time 00:17:41 | Step 160760 / 2001000 | TPS 109.818 | ETA 04:39:17
Time 00:17:51 | Step 161860 / 2001000 | TPS 109.924 | ETA 04:38:50
Time 00:18:01 | Step 162948 / 2001000 | TPS 108.769 | ETA 04:41:38
Time 00:18:11 | Step 164032 / 2001000 | TPS 108.31 | ETA 04:42:40
Time 00:18:21 | Step 165113 / 2001000 | TPS 108.011 | ETA 04:43:17
Time 00:18:31 | Step 166189 / 2001000 | TPS 107.515 | ETA 04:44:25
Time 00:18:41 | Step 167261 / 2001000 | TPS 107.166 | ETA 04:45:11
Time 00:18:51 | Step 168333 / 2001000 | TPS 107.172 | ETA 04:45:00
Time 00:19:01 | Step 169402 / 2001000 | TPS 106.886 | ETA 04:45:35
Time 00:19:11 | Step 170469 / 2001000 | TPS 106.669 | ETA 04:46:00
Time 00:19:21 | Step 171530 / 2001000 | TPS 106.093 | ETA 04:47:24
Time 00:19:31 | Step 172593 / 2001000 | TPS 106.252 | ETA 04:46:48
Time 00:19:41 | Step 173650 / 2001000 | TPS 105.628 | ETA 04:48:19
Time 00:19:51 | Step 174710 / 2001000 | TPS 105.918 | ETA 04:47:22
Time 00:20:01 | Step 175768 / 2001000 | TPS 105.8 | ETA 04:47:31
Time 00:20:11 | Step 176828 / 2001000 | TPS 105.957 | ETA 04:46:56
Time 00:20:21 | Step 177888 / 2001000 | TPS 105.929 | ETA 04:46:50
Time 00:20:31 | Step 178943 / 2001000 | TPS 105.491 | ETA 04:47:52
Time 00:20:41 | Step 180001 / 2001000 | TPS 105.731 | ETA 04:47:02
Time 00:20:51 | Step 181062 / 2001000 | TPS 106.013 | ETA 04:46:07
Time 00:21:01 | Step 182112 / 2001000 | TPS 104.98 | ETA 04:48:45
Time 00:21:11 | Step 183169 / 2001000 | TPS 105.695 | ETA 04:46:38
Time 00:21:21 | Step 184220 / 2001000 | TPS 105.046 | ETA 04:48:15
Time 00:21:31 | Step 185271 / 2001000 | TPS 105.005 | ETA 04:48:11
Time 00:21:41 | Step 186306 / 2001000 | TPS 103.477 | ETA 04:52:17
Time 00:21:51 | Step 187352 / 2001000 | TPS 104.594 | ETA 04:48:59
Time 00:22:01 | Step 188400 / 2001000 | TPS 104.764 | ETA 04:48:21
Time 00:22:11 | Step 189447 / 2001000 | TPS 104.615 | ETA 04:48:36
Time 00:22:21 | Step 190488 / 2001000 | TPS 104.011 | ETA 04:50:07
Time 00:22:31 | Step 191524 / 2001000 | TPS 103.518 | ETA 04:51:19
Time 00:22:41 | Step 192562 / 2001000 | TPS 103.717 | ETA 04:50:36
Time 00:22:51 | Step 193599 / 2001000 | TPS 103.604 | ETA 04:50:45
Time 00:23:01 | Step 194634 / 2001000 | TPS 103.473 | ETA 04:50:57
Time 00:23:11 | Step 195671 / 2001000 | TPS 103.695 | ETA 04:50:10
Time 00:23:21 | Step 196704 / 2001000 | TPS 103.235 | ETA 04:51:17
Time 00:23:31 | Step 197736 / 2001000 | TPS 103.106 | ETA 04:51:29
Time 00:23:41 | Step 198769 / 2001000 | TPS 103.28 | ETA 04:50:50
Time 00:23:51 | Step 199792 / 2001000 | TPS 102.264 | ETA 04:53:33
Time 00:24:01 | Step 200815 / 2001000 | TPS 102.253 | ETA 04:53:25
Time 00:24:11 | Step 201720 / 2001000 | TPS 90.4266 | ETA 05:31:37
Time 00:24:21 | Step 202739 / 2001000 | TPS 101.818 | ETA 04:54:21
Time 00:24:31 | Step 203760 / 2001000 | TPS 102.089 | ETA 04:53:24
Time 00:24:41 | Step 204777 / 2001000 | TPS 101.671 | ETA 04:54:27
Time 00:24:51 | Step 205796 / 2001000 | TPS 101.832 | ETA 04:53:49
Time 00:25:01 | Step 206814 / 2001000 | TPS 101.61 | ETA 04:54:17
Time 00:25:11 | Step 207837 / 2001000 | TPS 102.283 | ETA 04:52:11
Time 00:25:21 | Step 208856 / 2001000 | TPS 101.814 | ETA 04:53:22
Time 00:25:31 | Step 209874 / 2001000 | TPS 101.726 | ETA 04:53:27
Time 00:25:41 | Step 210894 / 2001000 | TPS 101.948 | ETA 04:52:39
Time 00:25:51 | Step 211909 / 2001000 | TPS 101.471 | ETA 04:53:51
Time 00:26:01 | Step 212923 / 2001000 | TPS 101.365 | ETA 04:53:59
Time 00:26:11 | Step 213932 / 2001000 | TPS 100.883 | ETA 04:55:14
Time 00:26:21 | Step 214949 / 2001000 | TPS 101.632 | ETA 04:52:53
Time 00:26:31 | Step 215960 / 2001000 | TPS 101.058 | ETA 04:54:23
Time 00:26:41 | Step 216973 / 2001000 | TPS 101.278 | ETA 04:53:35
Time 00:26:51 | Step 217983 / 2001000 | TPS 100.994 | ETA 04:54:14
Time 00:27:01 | Step 218992 / 2001000 | TPS 100.858 | ETA 04:54:28
Time 00:27:11 | Step 220003 / 2001000 | TPS 101.061 | ETA 04:53:43
Time 00:27:22 | Step 221009 / 2001000 | TPS 100.558 | ETA 04:55:01
Time 00:27:32 | Step 222014 / 2001000 | TPS 100.482 | ETA 04:55:04
Time 00:27:42 | Step 223019 / 2001000 | TPS 100.441 | ETA 04:55:01
Time 00:27:52 | Step 224026 / 2001000 | TPS 100.664 | ETA 04:54:12
Time 00:28:02 | Step 225029 / 2001000 | TPS 100.204 | ETA 04:55:23
Time 00:28:12 | Step 226034 / 2001000 | TPS 100.455 | ETA 04:54:29
Time 00:28:22 | Step 227034 / 2001000 | TPS 99.9154 | ETA 04:55:54
Time 00:28:32 | Step 228032 / 2001000 | TPS 99.7801 | ETA 04:56:08
Time 00:28:42 | Step 229028 / 2001000 | TPS 99.5156 | ETA 04:56:45
Time 00:28:52 | Step 230025 / 2001000 | TPS 99.6475 | ETA 04:56:12
Time 00:29:02 | Step 231019 / 2001000 | TPS 99.3449 | ETA 04:56:56
Time 00:29:12 | Step 232007 / 2001000 | TPS 98.7422 | ETA 04:58:35
Time 00:29:22 | Step 232994 / 2001000 | TPS 98.6528 | ETA 04:58:41
Time 00:29:32 | Step 233983 / 2001000 | TPS 98.8816 | ETA 04:57:50
Time 00:29:42 | Step 234972 / 2001000 | TPS 98.8383 | ETA 04:57:47
Time 00:29:52 | Step 235962 / 2001000 | TPS 98.9279 | ETA 04:57:21
Time 00:30:02 | Step 236955 / 2001000 | TPS 99.2462 | ETA 04:56:14
Time 00:30:12 | Step 237940 / 2001000 | TPS 98.4325 | ETA 04:58:31
Time 00:30:22 | Step 238933 / 2001000 | TPS 99.2283 | ETA 04:55:57
Time 00:30:32 | Step 239926 / 2001000 | TPS 99.2085 | ETA 04:55:51
Time 00:30:42 | Step 240913 / 2001000 | TPS 98.674 | ETA 04:57:17
Time 00:30:52 | Step 241899 / 2001000 | TPS 98.585 | ETA 04:57:23
Time 00:31:02 | Step 242888 / 2001000 | TPS 98.8655 | ETA 04:56:22
Time 00:31:12 | Step 243873 / 2001000 | TPS 98.4994 | ETA 04:57:18
Time 00:31:22 | Step 244858 / 2001000 | TPS 98.4183 | ETA 04:57:23
Time 00:31:32 | Step 245845 / 2001000 | TPS 98.6961 | ETA 04:56:23
Time 00:31:42 | Step 246833 / 2001000 | TPS 98.7316 | ETA 04:56:07
Time 00:31:52 | Step 247815 / 2001000 | TPS 98.148 | ETA 04:57:42
Time 00:32:02 | Step 248796 / 2001000 | TPS 98.0266 | ETA 04:57:54
Time 00:32:12 | Step 249780 / 2001000 | TPS 98.3217 | ETA 04:56:51
Time 00:32:22 | Step 250756 / 2001000 | TPS 97.5193 | ETA 04:59:07
Time 00:32:32 | Step 251736 / 2001000 | TPS 97.9532 | ETA 04:57:38
Time 00:32:42 | Step 252715 / 2001000 | TPS 97.8315 | ETA 04:57:50
Time 00:32:52 | Step 253693 / 2001000 | TPS 97.738 | ETA 04:57:57
Time 00:33:02 | Step 254666 / 2001000 | TPS 97.2621 | ETA 04:59:14
Time 00:33:12 | Step 255647 / 2001000 | TPS 98.0264 | ETA 04:56:44
Time 00:33:22 | Step 256623 / 2001000 | TPS 97.5774 | ETA 04:57:56
Time 00:33:32 | Step 257598 / 2001000 | TPS 97.4662 | ETA 04:58:07
Time 00:33:42 | Step 258576 / 2001000 | TPS 97.7532 | ETA 04:57:04
Time 00:33:52 | Step 259547 / 2001000 | TPS 97.0831 | ETA 04:58:57
Time 00:34:02 | Step 260521 / 2001000 | TPS 97.3068 | ETA 04:58:06
Time 00:34:12 | Step 261490 / 2001000 | TPS 96.8329 | ETA 04:59:24
Time 00:34:22 | Step 262461 / 2001000 | TPS 97.0283 | ETA 04:58:37
Time 00:34:32 | Step 263437 / 2001000 | TPS 97.5215 | ETA 04:56:57
Time 00:34:42 | Step 264409 / 2001000 | TPS 97.1209 | ETA 04:58:00
Time 00:34:52 | Step 265381 / 2001000 | TPS 97.1519 | ETA 04:57:45
Time 00:35:02 | Step 266356 / 2001000 | TPS 97.469 | ETA 04:56:36
Time 00:35:12 | Step 267328 / 2001000 | TPS 97.1101 | ETA 04:57:32
Time 00:35:22 | Step 268309 / 2001000 | TPS 98.0466 | ETA 04:54:32
Time 00:35:32 | Step 269284 / 2001000 | TPS 97.4544 | ETA 04:56:09
Time 00:35:42 | Step 270262 / 2001000 | TPS 97.7154 | ETA 04:55:12
Time 00:35:52 | Step 271235 / 2001000 | TPS 97.2899 | ETA 04:56:19
Time 00:36:02 | Step 272212 / 2001000 | TPS 97.6518 | ETA 04:55:03
Time 00:36:12 | Step 273185 / 2001000 | TPS 97.2474 | ETA 04:56:07
Time 00:36:22 | Step 274161 / 2001000 | TPS 97.5891 | ETA 04:54:54
Time 00:36:32 | Step 275137 / 2001000 | TPS 97.5378 | ETA 04:54:54
Time 00:36:42 | Step 276109 / 2001000 | TPS 97.1492 | ETA 04:55:55
Time 00:36:52 | Step 277076 / 2001000 | TPS 96.6293 | ETA 04:57:20
Time 00:37:02 | Step 278051 / 2001000 | TPS 97.4352 | ETA 04:54:43
Time 00:37:12 | Step 279026 / 2001000 | TPS 97.4284 | ETA 04:54:34
Time 00:37:22 | Step 279996 / 2001000 | TPS 96.9337 | ETA 04:55:54
Time 00:37:32 | Step 280968 / 2001000 | TPS 97.1063 | ETA 04:55:12
Time 00:37:42 | Step 281937 / 2001000 | TPS 96.8032 | ETA 04:55:58
Time 00:37:52 | Step 282902 / 2001000 | TPS 96.4649 | ETA 04:56:50
Time 00:38:02 | Step 283866 / 2001000 | TPS 96.3141 | ETA 04:57:08
Time 00:38:12 | Step 284829 / 2001000 | TPS 96.2529 | ETA 04:57:09
Time 00:38:22 | Step 285792 / 2001000 | TPS 96.2617 | ETA 04:56:58
Time 00:38:32 | Step 286758 / 2001000 | TPS 96.553 | ETA 04:55:54
Time 00:38:42 | Step 287718 / 2001000 | TPS 95.993 | ETA 04:57:27
Time 00:38:52 | Step 288682 / 2001000 | TPS 96.3234 | ETA 04:56:16
Time 00:39:02 | Step 289645 / 2001000 | TPS 96.2876 | ETA 04:56:13
Time 00:39:12 | Step 290603 / 2001000 | TPS 95.7961 | ETA 04:57:34
Time 00:39:22 | Step 291561 / 2001000 | TPS 95.7451 | ETA 04:57:34
Time 00:39:32 | Step 292523 / 2001000 | TPS 96.1496 | ETA 04:56:08
Time 00:39:42 | Step 293480 / 2001000 | TPS 95.6393 | ETA 04:57:33
Time 00:39:52 | Step 294439 / 2001000 | TPS 95.8785 | ETA 04:56:39
Time 00:40:02 | Step 295393 / 2001000 | TPS 95.3224 | ETA 04:58:13
Time 00:40:12 | Step 296350 / 2001000 | TPS 95.6896 | ETA 04:56:54
Time 00:40:22 | Step 297301 / 2001000 | TPS 95.0059 | ETA 04:58:52
Time 00:40:32 | Step 298253 / 2001000 | TPS 94.8839 | ETA 04:59:05
Time 00:40:42 | Step 299209 / 2001000 | TPS 95.5436 | ETA 04:56:51
Time 00:40:52 | Step 300163 / 2001000 | TPS 95.3195 | ETA 04:57:23
Time 00:41:02 | Step 301120 / 2001000 | TPS 95.6713 | ETA 04:56:07
Time 00:41:12 | Step 302058 / 2001000 | TPS 93.7398 | ETA 05:02:04
Time 00:41:22 | Step 303218 / 2001000 | TPS 115.952 | ETA 04:04:02
Time 00:41:32 | Step 304384 / 2001000 | TPS 116.543 | ETA 04:02:37
Time 00:41:42 | Step 305554 / 2001000 | TPS 116.986 | ETA 04:01:32
Time 00:41:52 | Step 306722 / 2001000 | TPS 116.714 | ETA 04:01:56
Time 00:42:02 | Step 307891 / 2001000 | TPS 116.828 | ETA 04:01:32
Time 00:42:12 | Step 309061 / 2001000 | TPS 116.972 | ETA 04:01:04
Time 00:42:22 | Step 310235 / 2001000 | TPS 117.386 | ETA 04:00:03
Time 00:42:32 | Step 311410 / 2001000 | TPS 117.473 | ETA 03:59:42
Time 00:42:42 | Step 312584 / 2001000 | TPS 117.35 | ETA 03:59:47
Time 00:42:52 | Step 313759 / 2001000 | TPS 117.426 | ETA 03:59:28
Time 00:43:02 | Step 314934 / 2001000 | TPS 117.414 | ETA 03:59:20
Time 00:43:12 | Step 316102 / 2001000 | TPS 116.764 | ETA 04:00:29
Time 00:43:22 | Step 317276 / 2001000 | TPS 117.376 | ETA 03:59:04
Time 00:43:32 | Step 318449 / 2001000 | TPS 117.292 | ETA 03:59:04
Time 00:43:42 | Step 319621 / 2001000 | TPS 117.169 | ETA 03:59:10
Time 00:43:52 | Step 320792 / 2001000 | TPS 117.005 | ETA 03:59:20
Time 00:44:02 | Step 321958 / 2001000 | TPS 116.56 | ETA 04:00:04
Time 00:44:12 | Step 323121 / 2001000 | TPS 116.272 | ETA 04:00:30
Time 00:44:22 | Step 324285 / 2001000 | TPS 116.348 | ETA 04:00:11
Time 00:44:32 | Step 325450 / 2001000 | TPS 116.422 | ETA 03:59:52
Time 00:44:42 | Step 326609 / 2001000 | TPS 115.87 | ETA 04:00:50
Time 00:44:52 | Step 327765 / 2001000 | TPS 115.561 | ETA 04:01:19
Time 00:45:02 | Step 328920 / 2001000 | TPS 115.457 | ETA 04:01:22
Time 00:45:12 | Step 330077 / 2001000 | TPS 115.651 | ETA 04:00:48
Time 00:45:22 | Step 331227 / 2001000 | TPS 114.999 | ETA 04:01:59
Time 00:45:32 | Step 332377 / 2001000 | TPS 114.994 | ETA 04:01:50
Time 00:45:42 | Step 333525 / 2001000 | TPS 114.745 | ETA 04:02:12
Time 00:45:52 | Step 334675 / 2001000 | TPS 114.593 | ETA 04:02:21
Time 00:46:02 | Step 335825 / 2001000 | TPS 114.998 | ETA 04:01:20
Time 00:46:12 | Step 336968 / 2001000 | TPS 114.265 | ETA 04:02:42
Time 00:46:22 | Step 338115 / 2001000 | TPS 114.619 | ETA 04:01:47
Time 00:46:32 | Step 339256 / 2001000 | TPS 114.076 | ETA 04:02:47
Time 00:46:42 | Step 340406 / 2001000 | TPS 114.988 | ETA 04:00:41
Time 00:46:52 | Step 341546 / 2001000 | TPS 113.919 | ETA 04:02:46
Time 00:47:02 | Step 342689 / 2001000 | TPS 114.261 | ETA 04:01:53
Time 00:47:12 | Step 343827 / 2001000 | TPS 113.734 | ETA 04:02:50
Time 00:47:22 | Step 344964 / 2001000 | TPS 113.69 | ETA 04:02:46
Time 00:47:32 | Step 346107 / 2001000 | TPS 114.253 | ETA 04:01:24
Time 00:47:42 | Step 347250 / 2001000 | TPS 114.283 | ETA 04:01:10
Time 00:47:52 | Step 348398 / 2001000 | TPS 114.748 | ETA 04:00:01
Time 00:48:02 | Step 349544 / 2001000 | TPS 114.392 | ETA 04:00:36
Time 00:48:12 | Step 350695 / 2001000 | TPS 115.046 | ETA 03:59:04
Time 00:48:22 | Step 351851 / 2001000 | TPS 115.548 | ETA 03:57:52
Time 00:48:32 | Step 353004 / 2001000 | TPS 115.269 | ETA 03:58:16
Time 00:48:42 | Step 354163 / 2001000 | TPS 115.61 | ETA 03:57:24
Time 00:48:52 | Step 355325 / 2001000 | TPS 116.16 | ETA 03:56:07
Time 00:49:02 | Step 356482 / 2001000 | TPS 115.676 | ETA 03:56:56
Time 00:49:12 | Step 357637 / 2001000 | TPS 115.432 | ETA 03:57:16
Time 00:49:22 | Step 358803 / 2001000 | TPS 116.54 | ETA 03:54:51
Time 00:49:32 | Step 359961 / 2001000 | TPS 115.756 | ETA 03:56:16
Time 00:49:42 | Step 361118 / 2001000 | TPS 115.679 | ETA 03:56:16
Time 00:49:52 | Step 362273 / 2001000 | TPS 115.413 | ETA 03:56:38
Time 00:50:02 | Step 363434 / 2001000 | TPS 116.037 | ETA 03:55:12
Time 00:50:12 | Step 364588 / 2001000 | TPS 115.355 | ETA 03:56:25
Time 00:50:22 | Step 365740 / 2001000 | TPS 115.167 | ETA 03:56:38
Time 00:50:32 | Step 366890 / 2001000 | TPS 114.909 | ETA 03:57:00
Time 00:50:42 | Step 368044 / 2001000 | TPS 115.358 | ETA 03:55:55
Time 00:50:52 | Step 369192 / 2001000 | TPS 114.715 | ETA 03:57:04
Time 00:51:02 | Step 370344 / 2001000 | TPS 115.182 | ETA 03:55:57
Time 00:51:12 | Step 371489 / 2001000 | TPS 114.468 | ETA 03:57:15
Time 00:51:22 | Step 372639 / 2001000 | TPS 114.929 | ETA 03:56:08
Time 00:51:32 | Step 373783 / 2001000 | TPS 114.318 | ETA 03:57:14
Time 00:51:42 | Step 374937 / 2001000 | TPS 114.853 | ETA 03:55:57
Time 00:51:52 | Step 376083 / 2001000 | TPS 114.556 | ETA 03:56:24
Time 00:52:02 | Step 377223 / 2001000 | TPS 113.997 | ETA 03:57:24
Time 00:52:12 | Step 378367 / 2001000 | TPS 114.324 | ETA 03:56:33
Time 00:52:22 | Step 379504 / 2001000 | TPS 113.258 | ETA 03:58:36
Time 00:52:32 | Step 380646 / 2001000 | TPS 114.11 | ETA 03:56:39
Time 00:52:42 | Step 381782 / 2001000 | TPS 113.558 | ETA 03:57:38
Time 00:52:52 | Step 382918 / 2001000 | TPS 113.538 | ETA 03:57:31
Time 00:53:02 | Step 384052 / 2001000 | TPS 113.395 | ETA 03:57:39
Time 00:53:12 | Step 385187 / 2001000 | TPS 113.442 | ETA 03:57:23
Time 00:53:22 | Step 386322 / 2001000 | TPS 113.442 | ETA 03:57:13
Time 00:53:32 | Step 387455 / 2001000 | TPS 113.29 | ETA 03:57:22
Time 00:53:42 | Step 388595 / 2001000 | TPS 113.964 | ETA 03:55:48
Time 00:53:52 | Step 389739 / 2001000 | TPS 114.347 | ETA 03:54:50
Time 00:54:02 | Step 390888 / 2001000 | TPS 114.841 | ETA 03:53:40
Time 00:54:12 | Step 392036 / 2001000 | TPS 114.751 | ETA 03:53:41
Time 00:54:22 | Step 393191 / 2001000 | TPS 115.449 | ETA 03:52:06
Time 00:54:32 | Step 394349 / 2001000 | TPS 115.708 | ETA 03:51:25
Time 00:54:42 | Step 395509 / 2001000 | TPS 115.946 | ETA 03:50:46
Time 00:54:52 | Step 396669 / 2001000 | TPS 115.982 | ETA 03:50:32
Time 00:55:02 | Step 397828 / 2001000 | TPS 115.861 | ETA 03:50:36
Time 00:55:12 | Step 398982 / 2001000 | TPS 115.362 | ETA 03:51:26
Time 00:55:22 | Step 400141 / 2001000 | TPS 115.887 | ETA 03:50:14
Time 00:55:32 | Step 401298 / 2001000 | TPS 115.692 | ETA 03:50:27
Time 00:55:42 | Step 402284 / 2001000 | TPS 98.5516 | ETA 04:30:22
Time 00:55:52 | Step 403439 / 2001000 | TPS 115.466 | ETA 03:50:35
Time 00:56:02 | Step 404590 / 2001000 | TPS 115.053 | ETA 03:51:15
Time 00:56:12 | Step 405743 / 2001000 | TPS 115.288 | ETA 03:50:37
Time 00:56:22 | Step 406894 / 2001000 | TPS 114.913 | ETA 03:51:12
Time 00:56:32 | Step 408044 / 2001000 | TPS 114.983 | ETA 03:50:53
Time 00:56:43 | Step 409191 / 2001000 | TPS 114.688 | ETA 03:51:19
Time 00:56:53 | Step 410338 / 2001000 | TPS 114.681 | ETA 03:51:10
Time 00:57:03 | Step 411481 / 2001000 | TPS 114.241 | ETA 03:51:53
Time 00:57:13 | Step 412626 / 2001000 | TPS 114.428 | ETA 03:51:21
Time 00:57:23 | Step 413768 / 2001000 | TPS 113.765 | ETA 03:52:31
Time 00:57:33 | Step 414911 / 2001000 | TPS 114.252 | ETA 03:51:22
Time 00:57:43 | Step 416052 / 2001000 | TPS 114.047 | ETA 03:51:37
Time 00:57:53 | Step 417188 / 2001000 | TPS 113.527 | ETA 03:52:30
Time 00:58:03 | Step 418322 / 2001000 | TPS 113.282 | ETA 03:52:51
Time 00:58:13 | Step 419456 / 2001000 | TPS 113.389 | ETA 03:52:27
Time 00:58:23 | Step 420587 / 2001000 | TPS 113.025 | ETA 03:53:02
Time 00:58:33 | Step 421721 / 2001000 | TPS 113.383 | ETA 03:52:08
Time 00:58:43 | Step 422855 / 2001000 | TPS 113.321 | ETA 03:52:06
Time 00:58:53 | Step 423984 / 2001000 | TPS 112.847 | ETA 03:52:54
Time 00:59:03 | Step 425116 / 2001000 | TPS 113.177 | ETA 03:52:04
Time 00:59:13 | Step 426242 / 2001000 | TPS 112.543 | ETA 03:53:12
Time 00:59:23 | Step 427374 / 2001000 | TPS 113.125 | ETA 03:51:50
Time 00:59:33 | Step 428506 / 2001000 | TPS 113.114 | ETA 03:51:41
Time 00:59:43 | Step 429633 / 2001000 | TPS 112.687 | ETA 03:52:24
Time 00:59:53 | Step 430768 / 2001000 | TPS 113.43 | ETA 03:50:43
Time 01:00:03 | Step 431901 / 2001000 | TPS 113.173 | ETA 03:51:04
Time 01:00:13 | Step 433041 / 2001000 | TPS 113.942 | ETA 03:49:21
Time 01:00:23 | Step 434184 / 2001000 | TPS 114.224 | ETA 03:48:36
Time 01:00:33 | Step 435324 / 2001000 | TPS 113.945 | ETA 03:49:00
Time 01:00:43 | Step 436470 / 2001000 | TPS 114.536 | ETA 03:47:39
Time 01:00:53 | Step 437616 / 2001000 | TPS 114.568 | ETA 03:47:25
Time 01:01:03 | Step 438761 / 2001000 | TPS 114.412 | ETA 03:47:34
Time 01:01:13 | Step 439905 / 2001000 | TPS 114.337 | ETA 03:47:33
Time 01:01:23 | Step 441053 / 2001000 | TPS 114.744 | ETA 03:46:35
Time 01:01:33 | Step 442200 / 2001000 | TPS 114.627 | ETA 03:46:38
Time 01:01:43 | Step 443345 / 2001000 | TPS 114.487 | ETA 03:46:45
Time 01:01:53 | Step 444491 / 2001000 | TPS 114.582 | ETA 03:46:24
Time 01:02:03 | Step 445634 / 2001000 | TPS 114.234 | ETA 03:46:55
Time 01:02:13 | Step 446778 / 2001000 | TPS 114.311 | ETA 03:46:36
Time 01:02:23 | Step 447924 / 2001000 | TPS 114.547 | ETA 03:45:58
Time 01:02:33 | Step 449063 / 2001000 | TPS 113.883 | ETA 03:47:07
Time 01:02:43 | Step 450203 / 2001000 | TPS 113.943 | ETA 03:46:50
Time 01:02:53 | Step 451341 / 2001000 | TPS 113.767 | ETA 03:47:01
Time 01:03:03 | Step 452479 / 2001000 | TPS 113.753 | ETA 03:46:53
Time 01:03:13 | Step 453615 / 2001000 | TPS 113.514 | ETA 03:47:11
Time 01:03:23 | Step 454750 / 2001000 | TPS 113.415 | ETA 03:47:13
Time 01:03:33 | Step 455881 / 2001000 | TPS 113.087 | ETA 03:47:43
Time 01:03:43 | Step 457010 / 2001000 | TPS 112.899 | ETA 03:47:55
Time 01:03:53 | Step 458141 / 2001000 | TPS 113.065 | ETA 03:47:25
Time 01:04:03 | Step 459271 / 2001000 | TPS 112.906 | ETA 03:47:34
Time 01:04:13 | Step 460399 / 2001000 | TPS 112.789 | ETA 03:47:39
Time 01:04:23 | Step 461527 / 2001000 | TPS 112.721 | ETA 03:47:37
Time 01:04:33 | Step 462655 / 2001000 | TPS 112.707 | ETA 03:47:29
Time 01:04:43 | Step 463786 / 2001000 | TPS 113.01 | ETA 03:46:42
Time 01:04:53 | Step 464912 / 2001000 | TPS 112.505 | ETA 03:47:33
Time 01:05:03 | Step 466042 / 2001000 | TPS 112.948 | ETA 03:46:29
Time 01:05:13 | Step 467167 / 2001000 | TPS 112.479 | ETA 03:47:16
Time 01:05:23 | Step 468299 / 2001000 | TPS 113.19 | ETA 03:45:40
Time 01:05:33 | Step 469424 / 2001000 | TPS 112.219 | ETA 03:47:28
Time 01:05:43 | Step 470558 / 2001000 | TPS 113.352 | ETA 03:45:01
Time 01:05:53 | Step 471688 / 2001000 | TPS 112.966 | ETA 03:45:37
Time 01:06:03 | Step 472825 / 2001000 | TPS 113.628 | ETA 03:44:08
Time 01:06:13 | Step 473961 / 2001000 | TPS 113.571 | ETA 03:44:05
Time 01:06:23 | Step 475099 / 2001000 | TPS 113.738 | ETA 03:43:35
Time 01:06:33 | Step 476237 / 2001000 | TPS 113.749 | ETA 03:43:24
Time 01:06:43 | Step 477374 / 2001000 | TPS 113.652 | ETA 03:43:26
Time 01:06:53 | Step 478513 / 2001000 | TPS 113.861 | ETA 03:42:51
Time 01:07:03 | Step 479651 / 2001000 | TPS 113.733 | ETA 03:42:56
Time 01:07:13 | Step 480783 / 2001000 | TPS 113.194 | ETA 03:43:50
Time 01:07:23 | Step 481921 / 2001000 | TPS 113.791 | ETA 03:42:29
Time 01:07:33 | Step 483057 / 2001000 | TPS 113.548 | ETA 03:42:48
Time 01:07:43 | Step 484194 / 2001000 | TPS 113.667 | ETA 03:42:24
Time 01:07:53 | Step 485335 / 2001000 | TPS 114.049 | ETA 03:41:29
Time 01:08:03 | Step 486465 / 2001000 | TPS 112.945 | ETA 03:43:29
Time 01:08:13 | Step 487600 / 2001000 | TPS 113.425 | ETA 03:42:22
Time 01:08:23 | Step 488732 / 2001000 | TPS 113.185 | ETA 03:42:41
Time 01:08:33 | Step 489864 / 2001000 | TPS 113.155 | ETA 03:42:34
Time 01:08:43 | Step 490995 / 2001000 | TPS 113.072 | ETA 03:42:34
Time 01:08:53 | Step 492124 / 2001000 | TPS 112.855 | ETA 03:42:50
Time 01:09:03 | Step 493252 / 2001000 | TPS 112.736 | ETA 03:42:54
Time 01:09:13 | Step 494378 / 2001000 | TPS 112.537 | ETA 03:43:07
Time 01:09:23 | Step 495503 / 2001000 | TPS 112.491 | ETA 03:43:03
Time 01:09:33 | Step 496627 / 2001000 | TPS 112.311 | ETA 03:43:14
Time 01:09:43 | Step 497751 / 2001000 | TPS 112.351 | ETA 03:42:59
Time 01:09:53 | Step 498875 / 2001000 | TPS 112.32 | ETA 03:42:53
Time 01:10:03 | Step 499998 / 2001000 | TPS 112.257 | ETA 03:42:51
Time 01:10:13 | Step 501122 / 2001000 | TPS 112.31 | ETA 03:42:34
Time 01:10:23 | Step 502074 / 2001000 | TPS 95.1655 | ETA 04:22:30
Time 01:10:33 | Step 503208 / 2001000 | TPS 113.376 | ETA 03:40:10
Time 01:10:43 | Step 504338 / 2001000 | TPS 112.979 | ETA 03:40:47
Time 01:10:53 | Step 505478 / 2001000 | TPS 113.963 | ETA 03:38:42
Time 01:11:03 | Step 506614 / 2001000 | TPS 113.591 | ETA 03:39:15
Time 01:11:13 | Step 507758 / 2001000 | TPS 114.35 | ETA 03:37:38
Time 01:11:23 | Step 508903 / 2001000 | TPS 114.036 | ETA 03:38:04
Time 01:11:33 | Step 510052 / 2001000 | TPS 114.877 | ETA 03:36:18
Time 01:11:43 | Step 511197 / 2001000 | TPS 114.406 | ETA 03:37:02
Time 01:11:53 | Step 512346 / 2001000 | TPS 114.829 | ETA 03:36:04
Time 01:12:03 | Step 513494 / 2001000 | TPS 114.709 | ETA 03:36:07
Time 01:12:13 | Step 514641 / 2001000 | TPS 114.639 | ETA 03:36:05
Time 01:12:23 | Step 515792 / 2001000 | TPS 115.045 | ETA 03:35:09
Time 01:12:33 | Step 516939 / 2001000 | TPS 114.678 | ETA 03:35:41
Time 01:12:43 | Step 518089 / 2001000 | TPS 114.971 | ETA 03:34:58
Time 01:12:53 | Step 519232 / 2001000 | TPS 114.253 | ETA 03:36:09
Time 01:13:03 | Step 520382 / 2001000 | TPS 114.924 | ETA 03:34:43
Time 01:13:13 | Step 521525 / 2001000 | TPS 114.261 | ETA 03:35:48
Time 01:13:23 | Step 522668 / 2001000 | TPS 114.273 | ETA 03:35:36
Time 01:13:33 | Step 523814 / 2001000 | TPS 114.568 | ETA 03:34:53
Time 01:13:43 | Step 524960 / 2001000 | TPS 114.531 | ETA 03:34:47
Time 01:13:53 | Step 526099 / 2001000 | TPS 113.873 | ETA 03:35:52
Time 01:14:03 | Step 527237 / 2001000 | TPS 113.714 | ETA 03:36:00
Time 01:14:13 | Step 528355 / 2001000 | TPS 111.711 | ETA 03:39:42
Time 01:14:23 | Step 529490 / 2001000 | TPS 113.467 | ETA 03:36:08
Time 01:14:33 | Step 530631 / 2001000 | TPS 114.013 | ETA 03:34:56
Time 01:14:43 | Step 531763 / 2001000 | TPS 113.186 | ETA 03:36:20
Time 01:14:53 | Step 532901 / 2001000 | TPS 113.76 | ETA 03:35:05
Time 01:15:03 | Step 534031 / 2001000 | TPS 112.951 | ETA 03:36:27
Time 01:15:13 | Step 535160 / 2001000 | TPS 112.845 | ETA 03:36:29
Time 01:15:23 | Step 536295 / 2001000 | TPS 113.407 | ETA 03:35:15
Time 01:15:33 | Step 537421 / 2001000 | TPS 112.599 | ETA 03:36:38
Time 01:15:43 | Step 538552 / 2001000 | TPS 113.092 | ETA 03:35:31
Time 01:15:53 | Step 539678 / 2001000 | TPS 112.535 | ETA 03:36:25
Time 01:16:03 | Step 540809 / 2001000 | TPS 113.047 | ETA 03:35:16
Time 01:16:13 | Step 541934 / 2001000 | TPS 112.495 | ETA 03:36:10
Time 01:16:23 | Step 543059 / 2001000 | TPS 112.414 | ETA 03:36:09
Time 01:16:33 | Step 544189 / 2001000 | TPS 112.954 | ETA 03:34:57
Time 01:16:43 | Step 545314 / 2001000 | TPS 112.409 | ETA 03:35:49
Time 01:16:53 | Step 546441 / 2001000 | TPS 112.698 | ETA 03:35:06
Time 01:17:03 | Step 547572 / 2001000 | TPS 113.006 | ETA 03:34:21
Time 01:17:13 | Step 548709 / 2001000 | TPS 113.196 | ETA 03:33:49
Time 01:17:23 | Step 549844 / 2001000 | TPS 113.488 | ETA 03:33:06
Time 01:17:33 | Step 550981 / 2001000 | TPS 113.641 | ETA 03:32:39
Time 01:17:43 | Step 552121 / 2001000 | TPS 113.911 | ETA 03:31:59
Time 01:17:53 | Step 553261 / 2001000 | TPS 113.935 | ETA 03:31:46
Time 01:18:03 | Step 554403 / 2001000 | TPS 114.177 | ETA 03:31:09
Time 01:18:13 | Step 555545 / 2001000 | TPS 114.196 | ETA 03:30:57
Time 01:18:23 | Step 556681 / 2001000 | TPS 113.58 | ETA 03:31:56
Time 01:18:33 | Step 557820 / 2001000 | TPS 113.866 | ETA 03:31:14
Time 01:18:43 | Step 558961 / 2001000 | TPS 114.093 | ETA 03:30:39
Time 01:18:53 | Step 560102 / 2001000 | TPS 114.036 | ETA 03:30:35
Time 01:19:03 | Step 561241 / 2001000 | TPS 113.899 | ETA 03:30:40
Time 01:19:13 | Step 562386 / 2001000 | TPS 114.431 | ETA 03:29:31
Time 01:19:23 | Step 563524 / 2001000 | TPS 113.763 | ETA 03:30:35
Time 01:19:33 | Step 564662 / 2001000 | TPS 113.712 | ETA 03:30:31
Time 01:19:43 | Step 565799 / 2001000 | TPS 113.622 | ETA 03:30:31
Time 01:19:53 | Step 566930 / 2001000 | TPS 112.983 | ETA 03:31:32
Time 01:20:03 | Step 568071 / 2001000 | TPS 114.038 | ETA 03:29:25
Time 01:20:13 | Step 569206 / 2001000 | TPS 113.428 | ETA 03:30:22
Time 01:20:23 | Step 570339 / 2001000 | TPS 113.26 | ETA 03:30:31
Time 01:20:33 | Step 571468 / 2001000 | TPS 112.853 | ETA 03:31:07
Time 01:20:43 | Step 572598 / 2001000 | TPS 112.993 | ETA 03:30:41
Time 01:20:53 | Step 573726 / 2001000 | TPS 112.734 | ETA 03:31:00
Time 01:21:03 | Step 574853 / 2001000 | TPS 112.683 | ETA 03:30:56
Time 01:21:13 | Step 575979 / 2001000 | TPS 112.581 | ETA 03:30:57
Time 01:21:23 | Step 577104 / 2001000 | TPS 112.444 | ETA 03:31:03
Time 01:21:33 | Step 578230 / 2001000 | TPS 112.509 | ETA 03:30:45
Time 01:21:43 | Step 579355 / 2001000 | TPS 112.459 | ETA 03:30:41
Time 01:21:53 | Step 580479 / 2001000 | TPS 112.399 | ETA 03:30:38
Time 01:22:03 | Step 581603 / 2001000 | TPS 112.381 | ETA 03:30:30
Time 01:22:13 | Step 582725 / 2001000 | TPS 111.846 | ETA 03:31:20
Time 01:22:23 | Step 583850 / 2001000 | TPS 112.445 | ETA 03:30:03
Time 01:22:33 | Step 584977 / 2001000 | TPS 112.634 | ETA 03:29:31
Time 01:22:43 | Step 586105 / 2001000 | TPS 112.733 | ETA 03:29:10
Time 01:22:53 | Step 587236 / 2001000 | TPS 113.025 | ETA 03:28:28
Time 01:23:03 | Step 588370 / 2001000 | TPS 113.321 | ETA 03:27:45
Time 01:23:13 | Step 589500 / 2001000 | TPS 112.933 | ETA 03:28:18
Time 01:23:23 | Step 590639 / 2001000 | TPS 113.818 | ETA 03:26:31
Time 01:23:33 | Step 591780 / 2001000 | TPS 114.006 | ETA 03:26:00
Time 01:23:43 | Step 592917 / 2001000 | TPS 113.687 | ETA 03:26:25
Time 01:23:53 | Step 594060 / 2001000 | TPS 114.224 | ETA 03:25:17
Time 01:24:03 | Step 595202 / 2001000 | TPS 114.11 | ETA 03:25:19
Time 01:24:13 | Step 596336 / 2001000 | TPS 113.368 | ETA 03:26:30
Time 01:24:23 | Step 597479 / 2001000 | TPS 114.3 | ETA 03:24:39
Time 01:24:33 | Step 598624 / 2001000 | TPS 114.416 | ETA 03:24:16
Time 01:24:43 | Step 599762 / 2001000 | TPS 113.795 | ETA 03:25:13
Time 01:24:53 | Step 600904 / 2001000 | TPS 114.121 | ETA 03:24:28
Time 01:25:03 | Step 601984 / 2001000 | TPS 107.948 | ETA 03:36:00
Time 01:25:13 | Step 603003 / 2001000 | TPS 101.863 | ETA 03:48:44
Time 01:25:23 | Step 604140 / 2001000 | TPS 113.641 | ETA 03:24:51
Time 01:25:33 | Step 605271 / 2001000 | TPS 113.07 | ETA 03:25:43
Time 01:25:43 | Step 606403 / 2001000 | TPS 113.142 | ETA 03:25:26
Time 01:25:53 | Step 607537 / 2001000 | TPS 113.399 | ETA 03:24:48
Time 01:26:03 | Step 608668 / 2001000 | TPS 113.05 | ETA 03:25:16
Time 01:26:13 | Step 609804 / 2001000 | TPS 113.512 | ETA 03:24:15
Time 01:26:23 | Step 610937 / 2001000 | TPS 113.299 | ETA 03:24:28
Time 01:26:33 | Step 612066 / 2001000 | TPS 112.845 | ETA 03:25:08
Time 01:26:43 | Step 613195 / 2001000 | TPS 112.794 | ETA 03:25:03
Time 01:26:53 | Step 614326 / 2001000 | TPS 113.082 | ETA 03:24:22
Time 01:27:03 | Step 615449 / 2001000 | TPS 112.258 | ETA 03:25:42
Time 01:27:13 | Step 616575 / 2001000 | TPS 112.573 | ETA 03:24:57
Time 01:27:23 | Step 617696 / 2001000 | TPS 112.011 | ETA 03:25:49
Time 01:27:33 | Step 618822 / 2001000 | TPS 112.539 | ETA 03:24:41
Time 01:27:43 | Step 619941 / 2001000 | TPS 111.876 | ETA 03:25:44
Time 01:27:53 | Step 621065 / 2001000 | TPS 112.391 | ETA 03:24:38
Time 01:28:03 | Step 622183 / 2001000 | TPS 111.799 | ETA 03:25:32
Time 01:28:14 | Step 623307 / 2001000 | TPS 112.315 | ETA 03:24:26
Time 01:28:24 | Step 624425 / 2001000 | TPS 111.786 | ETA 03:25:14
Time 01:28:34 | Step 625550 / 2001000 | TPS 112.432 | ETA 03:23:53
Time 01:28:44 | Step 626671 / 2001000 | TPS 112.065 | ETA 03:24:23
Time 01:28:54 | Step 627798 / 2001000 | TPS 112.245 | ETA 03:23:53
Time 01:29:04 | Step 628926 / 2001000 | TPS 112.712 | ETA 03:22:53
Time 01:29:14 | Step 630050 / 2001000 | TPS 112.355 | ETA 03:23:21
Time 01:29:24 | Step 631175 / 2001000 | TPS 112.09 | ETA 03:23:40
Time 01:29:34 | Step 632307 / 2001000 | TPS 113.123 | ETA 03:21:39
Time 01:29:44 | Step 633434 / 2001000 | TPS 112.637 | ETA 03:22:21
Time 01:29:54 | Step 634564 / 2001000 | TPS 112.482 | ETA 03:22:28
Time 01:30:04 | Step 635697 / 2001000 | TPS 113.262 | ETA 03:20:54
Time 01:30:14 | Step 636821 / 2001000 | TPS 112.341 | ETA 03:22:23
Time 01:30:24 | Step 637954 / 2001000 | TPS 113.273 | ETA 03:20:33
Time 01:30:34 | Step 639082 / 2001000 | TPS 112.736 | ETA 03:21:20
Time 01:30:44 | Step 640206 / 2001000 | TPS 112.355 | ETA 03:21:51
Time 01:30:54 | Step 641335 / 2001000 | TPS 112.87 | ETA 03:20:46
Time 01:31:04 | Step 642459 / 2001000 | TPS 112.32 | ETA 03:21:35
Time 01:31:14 | Step 643582 / 2001000 | TPS 112.215 | ETA 03:21:36
Time 01:31:24 | Step 644704 / 2001000 | TPS 112.146 | ETA 03:21:34
Time 01:31:34 | Step 645826 / 2001000 | TPS 112.121 | ETA 03:21:26
Time 01:31:44 | Step 646945 / 2001000 | TPS 111.862 | ETA 03:21:44
Time 01:31:54 | Step 648069 / 2001000 | TPS 112.377 | ETA 03:20:39
Time 01:32:04 | Step 649187 / 2001000 | TPS 111.798 | ETA 03:21:31
Time 01:32:14 | Step 650305 / 2001000 | TPS 111.737 | ETA 03:21:28
Time 01:32:24 | Step 651421 / 2001000 | TPS 111.547 | ETA 03:21:38
Time 01:32:34 | Step 652538 / 2001000 | TPS 111.661 | ETA 03:21:16
Time 01:32:44 | Step 653661 / 2001000 | TPS 112.249 | ETA 03:20:03
Time 01:32:54 | Step 654780 / 2001000 | TPS 111.855 | ETA 03:20:35
Time 01:33:04 | Step 655903 / 2001000 | TPS 112.206 | ETA 03:19:47
Time 01:33:14 | Step 657028 / 2001000 | TPS 112.472 | ETA 03:19:09
Time 01:33:24 | Step 658155 / 2001000 | TPS 112.649 | ETA 03:18:40
Time 01:33:34 | Step 659285 / 2001000 | TPS 112.971 | ETA 03:17:56
Time 01:33:44 | Step 660413 / 2001000 | TPS 112.521 | ETA 03:18:34
Time 01:33:54 | Step 661545 / 2001000 | TPS 113.15 | ETA 03:17:17
Time 01:34:04 | Step 662681 / 2001000 | TPS 113.519 | ETA 03:16:29
Time 01:34:14 | Step 663815 / 2001000 | TPS 113.343 | ETA 03:16:37
Time 01:34:24 | Step 664952 / 2001000 | TPS 113.649 | ETA 03:15:55
Time 01:34:34 | Step 666088 / 2001000 | TPS 113.558 | ETA 03:15:55
Time 01:34:44 | Step 667222 / 2001000 | TPS 113.389 | ETA 03:16:02
Time 01:34:54 | Step 668357 / 2001000 | TPS 113.184 | ETA 03:16:14
Time 01:35:04 | Step 669493 / 2001000 | TPS 113.511 | ETA 03:15:30
Time 01:35:14 | Step 670627 / 2001000 | TPS 113.336 | ETA 03:15:38
Time 01:35:24 | Step 671761 / 2001000 | TPS 113.311 | ETA 03:15:30
Time 01:35:34 | Step 672895 / 2001000 | TPS 113.312 | ETA 03:15:20
Time 01:35:44 | Step 674026 / 2001000 | TPS 113.043 | ETA 03:15:38
Time 01:35:54 | Step 675155 / 2001000 | TPS 112.816 | ETA 03:15:52
Time 01:36:04 | Step 676286 / 2001000 | TPS 113.044 | ETA 03:15:18
Time 01:36:14 | Step 677410 / 2001000 | TPS 112.371 | ETA 03:16:18
Time 01:36:24 | Step 678539 / 2001000 | TPS 112.86 | ETA 03:15:17
Time 01:36:34 | Step 679669 / 2001000 | TPS 112.935 | ETA 03:14:59
Time 01:36:44 | Step 680796 / 2001000 | TPS 112.627 | ETA 03:15:21
Time 01:36:54 | Step 681919 / 2001000 | TPS 112.117 | ETA 03:16:05
Time 01:37:04 | Step 683049 / 2001000 | TPS 112.548 | ETA 03:15:10
Time 01:37:14 | Step 684173 / 2001000 | TPS 112.394 | ETA 03:15:16
Time 01:37:24 | Step 685296 / 2001000 | TPS 112.291 | ETA 03:15:16
Time 01:37:34 | Step 686418 / 2001000 | TPS 112.177 | ETA 03:15:18
Time 01:37:44 | Step 687538 / 2001000 | TPS 111.958 | ETA 03:15:31
Time 01:37:54 | Step 688658 / 2001000 | TPS 111.972 | ETA 03:15:20
Time 01:38:04 | Step 689777 / 2001000 | TPS 111.826 | ETA 03:15:25
Time 01:38:14 | Step 690890 / 2001000 | TPS 111.237 | ETA 03:16:17
Time 01:38:24 | Step 692008 / 2001000 | TPS 111.71 | ETA 03:15:17
Time 01:38:34 | Step 693125 / 2001000 | TPS 111.675 | ETA 03:15:11
Time 01:38:44 | Step 694236 / 2001000 | TPS 111.083 | ETA 03:16:03
Time 01:38:54 | Step 695353 / 2001000 | TPS 111.618 | ETA 03:14:57
Time 01:39:04 | Step 696470 / 2001000 | TPS 111.627 | ETA 03:14:46
Time 01:39:14 | Step 697588 / 2001000 | TPS 111.757 | ETA 03:14:22
Time 01:39:24 | Step 698708 / 2001000 | TPS 111.92 | ETA 03:13:55
Time 01:39:34 | Step 699823 / 2001000 | TPS 111.473 | ETA 03:14:32
Time 01:39:44 | Step 700942 / 2001000 | TPS 111.84 | ETA 03:13:44
Time 01:39:54 | Step 702063 / 2001000 | TPS 112.05 | ETA 03:13:12
Time 01:40:04 | Step 703017 / 2001000 | TPS 95.3375 | ETA 03:46:54
Time 01:40:14 | Step 704142 / 2001000 | TPS 112.495 | ETA 03:12:08
Time 01:40:24 | Step 705275 / 2001000 | TPS 112.782 | ETA 03:11:28
Time 01:40:34 | Step 706410 / 2001000 | TPS 113.441 | ETA 03:10:12
Time 01:40:44 | Step 707537 / 2001000 | TPS 112.626 | ETA 03:11:24
Time 01:40:54 | Step 708672 / 2001000 | TPS 113.409 | ETA 03:09:55
Time 01:41:04 | Step 709801 / 2001000 | TPS 112.834 | ETA 03:10:43
Time 01:41:14 | Step 710936 / 2001000 | TPS 113.455 | ETA 03:09:30
Time 01:41:24 | Step 712071 / 2001000 | TPS 113.423 | ETA 03:09:23
Time 01:41:34 | Step 713199 / 2001000 | TPS 112.755 | ETA 03:10:21
Time 01:41:44 | Step 714328 / 2001000 | TPS 112.82 | ETA 03:10:04
Time 01:41:54 | Step 715462 / 2001000 | TPS 113.322 | ETA 03:09:04
Time 01:42:04 | Step 716589 / 2001000 | TPS 112.642 | ETA 03:10:02
Time 01:42:14 | Step 717715 / 2001000 | TPS 112.522 | ETA 03:10:04
Time 01:42:24 | Step 718841 / 2001000 | TPS 112.544 | ETA 03:09:52
Time 01:42:34 | Step 719971 / 2001000 | TPS 112.935 | ETA 03:09:03
Time 01:42:44 | Step 721094 / 2001000 | TPS 112.277 | ETA 03:09:59
Time 01:42:54 | Step 722224 / 2001000 | TPS 112.921 | ETA 03:08:44
Time 01:43:04 | Step 723347 / 2001000 | TPS 112.296 | ETA 03:09:37
Time 01:43:14 | Step 724469 / 2001000 | TPS 112.106 | ETA 03:09:46
Time 01:43:24 | Step 725593 / 2001000 | TPS 112.39 | ETA 03:09:08
Time 01:43:34 | Step 726713 / 2001000 | TPS 111.913 | ETA 03:09:46
Time 01:43:44 | Step 727832 / 2001000 | TPS 111.859 | ETA 03:09:41
Time 01:43:54 | Step 728953 / 2001000 | TPS 112.061 | ETA 03:09:11
Time 01:44:04 | Step 730069 / 2001000 | TPS 111.558 | ETA 03:09:52
Time 01:44:14 | Step 731193 / 2001000 | TPS 112.325 | ETA 03:08:24
Time 01:44:24 | Step 732307 / 2001000 | TPS 111.377 | ETA 03:09:50
Time 01:44:34 | Step 733425 / 2001000 | TPS 111.774 | ETA 03:09:00
Time 01:44:44 | Step 734537 / 2001000 | TPS 111.146 | ETA 03:09:54
Time 01:44:54 | Step 735654 / 2001000 | TPS 111.66 | ETA 03:08:52
Time 01:45:04 | Step 736767 / 2001000 | TPS 111.268 | ETA 03:09:22
Time 01:45:14 | Step 737886 / 2001000 | TPS 111.869 | ETA 03:08:11
Time 01:45:24 | Step 739007 / 2001000 | TPS 112.086 | ETA 03:07:39
Time 01:45:34 | Step 740135 / 2001000 | TPS 112.767 | ETA 03:06:21
Time 01:45:44 | Step 741268 / 2001000 | TPS 113.244 | ETA 03:05:24
Time 01:45:54 | Step 742404 / 2001000 | TPS 113.546 | ETA 03:04:44
Time 01:46:04 | Step 743539 / 2001000 | TPS 113.427 | ETA 03:04:46
Time 01:46:14 | Step 744680 / 2001000 | TPS 114.071 | ETA 03:03:33
Time 01:46:24 | Step 745824 / 2001000 | TPS 114.316 | ETA 03:02:59
Time 01:46:34 | Step 746963 / 2001000 | TPS 113.819 | ETA 03:03:37
Time 01:46:44 | Step 748110 / 2001000 | TPS 114.625 | ETA 03:02:10
Time 01:46:54 | Step 749255 / 2001000 | TPS 114.499 | ETA 03:02:12
Time 01:47:04 | Step 750395 / 2001000 | TPS 113.956 | ETA 03:02:54
Time 01:47:14 | Step 751544 / 2001000 | TPS 114.832 | ETA 03:01:20
Time 01:47:24 | Step 752686 / 2001000 | TPS 114.192 | ETA 03:02:11
Time 01:47:34 | Step 753837 / 2001000 | TPS 115.016 | ETA 03:00:43
Time 01:47:44 | Step 754985 / 2001000 | TPS 114.789 | ETA 03:00:54
Time 01:47:54 | Step 756128 / 2001000 | TPS 114.239 | ETA 03:01:37
Time 01:48:04 | Step 757277 / 2001000 | TPS 114.891 | ETA 03:00:25
Time 01:48:14 | Step 758424 / 2001000 | TPS 114.684 | ETA 03:00:34
Time 01:48:24 | Step 759567 / 2001000 | TPS 113.991 | ETA 03:01:30
Time 01:48:34 | Step 760713 / 2001000 | TPS 114.511 | ETA 03:00:31
Time 01:48:44 | Step 761853 / 2001000 | TPS 113.975 | ETA 03:01:12
Time 01:48:54 | Step 762996 / 2001000 | TPS 114.285 | ETA 03:00:32
Time 01:49:04 | Step 764134 / 2001000 | TPS 113.732 | ETA 03:01:15
Time 01:49:14 | Step 765276 / 2001000 | TPS 114.132 | ETA 03:00:27
Time 01:49:24 | Step 766412 / 2001000 | TPS 113.592 | ETA 03:01:08
Time 01:49:34 | Step 767553 / 2001000 | TPS 114.021 | ETA 03:00:17
Time 01:49:44 | Step 768687 / 2001000 | TPS 113.399 | ETA 03:01:07
Time 01:49:54 | Step 769827 / 2001000 | TPS 113.984 | ETA 03:00:01
Time 01:50:04 | Step 770961 / 2001000 | TPS 113.162 | ETA 03:01:09
Time 01:50:14 | Step 772099 / 2001000 | TPS 113.758 | ETA 03:00:02
Time 01:50:24 | Step 773230 / 2001000 | TPS 113.007 | ETA 03:01:04
Time 01:50:34 | Step 774366 / 2001000 | TPS 113.595 | ETA 02:59:58
Time 01:50:44 | Step 775500 / 2001000 | TPS 113.387 | ETA 03:00:08
Time 01:50:54 | Step 776632 / 2001000 | TPS 113.151 | ETA 03:00:20
Time 01:51:04 | Step 777757 / 2001000 | TPS 112.437 | ETA 03:01:19
Time 01:51:14 | Step 778886 / 2001000 | TPS 112.858 | ETA 03:00:28
Time 01:51:24 | Step 780013 / 2001000 | TPS 112.674 | ETA 03:00:36
Time 01:51:34 | Step 781135 / 2001000 | TPS 112.098 | ETA 03:01:22
Time 01:51:44 | Step 782261 / 2001000 | TPS 112.531 | ETA 03:00:30
Time 01:51:54 | Step 783387 / 2001000 | TPS 112.536 | ETA 03:00:19
Time 01:52:04 | Step 784510 / 2001000 | TPS 112.278 | ETA 03:00:34
Time 01:52:14 | Step 785643 / 2001000 | TPS 113.276 | ETA 02:58:49
Time 01:52:24 | Step 786775 / 2001000 | TPS 113.198 | ETA 02:58:46
Time 01:52:34 | Step 787909 / 2001000 | TPS 113.357 | ETA 02:58:21
Time 01:52:44 | Step 789046 / 2001000 | TPS 113.64 | ETA 02:57:44
Time 01:52:54 | Step 790191 / 2001000 | TPS 114.424 | ETA 02:56:21
Time 01:53:04 | Step 791330 / 2001000 | TPS 113.864 | ETA 02:57:03
Time 01:53:14 | Step 792470 / 2001000 | TPS 113.94 | ETA 02:56:46
Time 01:53:24 | Step 793611 / 2001000 | TPS 114.014 | ETA 02:56:29
Time 01:53:34 | Step 794751 / 2001000 | TPS 113.973 | ETA 02:56:23
Time 01:53:44 | Step 795895 / 2001000 | TPS 114.395 | ETA 02:55:34
Time 01:53:54 | Step 797035 / 2001000 | TPS 113.993 | ETA 02:56:01
Time 01:54:04 | Step 798175 / 2001000 | TPS 113.907 | ETA 02:55:59
Time 01:54:14 | Step 799320 / 2001000 | TPS 114.427 | ETA 02:55:01
Time 01:54:24 | Step 800459 / 2001000 | TPS 113.852 | ETA 02:55:44
Time 01:54:34 | Step 801596 / 2001000 | TPS 113.693 | ETA 02:55:49
Time 01:54:44 | Step 802553 / 2001000 | TPS 95.6722 | ETA 03:28:46
Time 01:54:55 | Step 803690 / 2001000 | TPS 113.203 | ETA 02:56:16
Time 01:55:05 | Step 804831 / 2001000 | TPS 114.059 | ETA 02:54:47
Time 01:55:15 | Step 805966 / 2001000 | TPS 113.427 | ETA 02:55:35
Time 01:55:25 | Step 807105 / 2001000 | TPS 113.842 | ETA 02:54:47
Time 01:55:35 | Step 808237 / 2001000 | TPS 113.197 | ETA 02:55:37
Time 01:55:45 | Step 809368 / 2001000 | TPS 113.075 | ETA 02:55:38
Time 01:55:55 | Step 810506 / 2001000 | TPS 113.74 | ETA 02:54:26
Time 01:56:05 | Step 811639 / 2001000 | TPS 113.281 | ETA 02:54:59
Time 01:56:15 | Step 812774 / 2001000 | TPS 113.468 | ETA 02:54:31
Time 01:56:25 | Step 813911 / 2001000 | TPS 113.651 | ETA 02:54:05
Time 01:56:35 | Step 815048 / 2001000 | TPS 113.636 | ETA 02:53:56
Time 01:56:45 | Step 816193 / 2001000 | TPS 114.453 | ETA 02:52:31
Time 01:56:55 | Step 817330 / 2001000 | TPS 113.671 | ETA 02:53:33
Time 01:57:05 | Step 818465 / 2001000 | TPS 113.439 | ETA 02:53:44
Time 01:57:15 | Step 819604 / 2001000 | TPS 113.653 | ETA 02:53:14
Time 01:57:25 | Step 820748 / 2001000 | TPS 114.312 | ETA 02:52:04
Time 01:57:35 | Step 821885 / 2001000 | TPS 113.675 | ETA 02:52:52
Time 01:57:45 | Step 823021 / 2001000 | TPS 113.539 | ETA 02:52:55
Time 01:57:55 | Step 824160 / 2001000 | TPS 113.861 | ETA 02:52:15
Time 01:58:05 | Step 825297 / 2001000 | TPS 113.671 | ETA 02:52:23
Time 01:58:15 | Step 826433 / 2001000 | TPS 113.552 | ETA 02:52:23
Time 01:58:25 | Step 827564 / 2001000 | TPS 112.899 | ETA 02:53:13
Time 01:58:35 | Step 828698 / 2001000 | TPS 113.385 | ETA 02:52:19
Time 01:58:45 | Step 829832 / 2001000 | TPS 113.324 | ETA 02:52:14
Time 01:58:55 | Step 830964 / 2001000 | TPS 113.15 | ETA 02:52:20
Time 01:59:05 | Step 832102 / 2001000 | TPS 113.737 | ETA 02:51:17
Time 01:59:15 | Step 833231 / 2001000 | TPS 112.854 | ETA 02:52:27
Time 01:59:25 | Step 834359 / 2001000 | TPS 112.777 | ETA 02:52:24
Time 01:59:35 | Step 835489 / 2001000 | TPS 112.963 | ETA 02:51:57
Time 01:59:45 | Step 836620 / 2001000 | TPS 113.027 | ETA 02:51:41
Time 01:59:55 | Step 837759 / 2001000 | TPS 113.823 | ETA 02:50:19
Time 02:00:05 | Step 838889 / 2001000 | TPS 112.95 | ETA 02:51:28
Time 02:00:15 | Step 840026 / 2001000 | TPS 113.659 | ETA 02:50:14
Time 02:00:25 | Step 841164 / 2001000 | TPS 113.756 | ETA 02:49:55
Time 02:00:35 | Step 842302 / 2001000 | TPS 113.731 | ETA 02:49:48
Time 02:00:45 | Step 843439 / 2001000 | TPS 113.693 | ETA 02:49:41
Time 02:00:55 | Step 844570 / 2001000 | TPS 113.093 | ETA 02:50:25
Time 02:01:05 | Step 845710 / 2001000 | TPS 113.759 | ETA 02:49:15
Time 02:01:15 | Step 846844 / 2001000 | TPS 113.369 | ETA 02:49:40
Time 02:01:25 | Step 847978 / 2001000 | TPS 113.394 | ETA 02:49:28
Time 02:01:35 | Step 849112 / 2001000 | TPS 113.32 | ETA 02:49:24
Time 02:01:45 | Step 850248 / 2001000 | TPS 113.562 | ETA 02:48:53
Time 02:01:55 | Step 851378 / 2001000 | TPS 112.997 | ETA 02:49:33
Time 02:02:05 | Step 852512 / 2001000 | TPS 113.326 | ETA 02:48:54
Time 02:02:15 | Step 853644 / 2001000 | TPS 113.185 | ETA 02:48:57
Time 02:02:25 | Step 854778 / 2001000 | TPS 113.326 | ETA 02:48:34
Time 02:02:35 | Step 855910 / 2001000 | TPS 113.119 | ETA 02:48:42
Time 02:02:45 | Step 857042 / 2001000 | TPS 113.158 | ETA 02:48:29
Time 02:02:55 | Step 858165 / 2001000 | TPS 112.241 | ETA 02:49:41
Time 02:03:05 | Step 859295 / 2001000 | TPS 112.92 | ETA 02:48:30
Time 02:03:15 | Step 860426 / 2001000 | TPS 113.078 | ETA 02:48:06
Time 02:03:25 | Step 861557 / 2001000 | TPS 113.073 | ETA 02:47:57
Time 02:03:35 | Step 862685 / 2001000 | TPS 112.764 | ETA 02:48:14
Time 02:03:45 | Step 863820 / 2001000 | TPS 113.423 | ETA 02:47:06
Time 02:03:55 | Step 864951 / 2001000 | TPS 113.069 | ETA 02:47:27
Time 02:04:05 | Step 866088 / 2001000 | TPS 113.615 | ETA 02:46:29
Time 02:04:15 | Step 867227 / 2001000 | TPS 113.809 | ETA 02:46:02
Time 02:04:25 | Step 868360 / 2001000 | TPS 113.226 | ETA 02:46:43
Time 02:04:35 | Step 869496 / 2001000 | TPS 113.564 | ETA 02:46:03
Time 02:04:45 | Step 870631 / 2001000 | TPS 113.47 | ETA 02:46:01
Time 02:04:55 | Step 871762 / 2001000 | TPS 112.794 | ETA 02:46:51
Time 02:05:05 | Step 872897 / 2001000 | TPS 113.414 | ETA 02:45:46
Time 02:05:15 | Step 874030 / 2001000 | TPS 113.283 | ETA 02:45:48
Time 02:05:25 | Step 875157 / 2001000 | TPS 112.694 | ETA 02:46:30
Time 02:05:35 | Step 876285 / 2001000 | TPS 112.709 | ETA 02:46:18
Time 02:05:45 | Step 877418 / 2001000 | TPS 113.277 | ETA 02:45:18
Time 02:05:55 | Step 878544 / 2001000 | TPS 112.585 | ETA 02:46:09
Time 02:06:05 | Step 879676 / 2001000 | TPS 113.114 | ETA 02:45:13
Time 02:06:15 | Step 880804 / 2001000 | TPS 112.454 | ETA 02:46:01
Time 02:06:25 | Step 881935 / 2001000 | TPS 113.042 | ETA 02:44:59
Time 02:06:35 | Step 883062 / 2001000 | TPS 112.457 | ETA 02:45:41
Time 02:06:45 | Step 884192 / 2001000 | TPS 112.929 | ETA 02:44:49
Time 02:06:55 | Step 885320 / 2001000 | TPS 112.775 | ETA 02:44:52
Time 02:07:05 | Step 886453 / 2001000 | TPS 113.234 | ETA 02:44:02
Time 02:07:15 | Step 887582 / 2001000 | TPS 112.809 | ETA 02:44:29
Time 02:07:25 | Step 888719 / 2001000 | TPS 113.692 | ETA 02:43:03
Time 02:07:35 | Step 889849 / 2001000 | TPS 112.994 | ETA 02:43:53
Time 02:07:45 | Step 890980 / 2001000 | TPS 113.021 | ETA 02:43:41
Time 02:07:55 | Step 892110 / 2001000 | TPS 112.985 | ETA 02:43:34
Time 02:08:05 | Step 893246 / 2001000 | TPS 113.57 | ETA 02:42:33
Time 02:08:15 | Step 894375 / 2001000 | TPS 112.84 | ETA 02:43:27
Time 02:08:25 | Step 895502 / 2001000 | TPS 112.684 | ETA 02:43:30
Time 02:08:35 | Step 896637 / 2001000 | TPS 113.453 | ETA 02:42:14
Time 02:08:45 | Step 897763 / 2001000 | TPS 112.532 | ETA 02:43:23
Time 02:08:55 | Step 898894 / 2001000 | TPS 113.08 | ETA 02:42:26
Time 02:09:05 | Step 900019 / 2001000 | TPS 112.486 | ETA 02:43:07
Time 02:09:15 | Step 901143 / 2001000 | TPS 112.362 | ETA 02:43:08
Time 02:09:25 | Step 902268 / 2001000 | TPS 112.457 | ETA 02:42:50
Time 02:09:35 | Step 903209 / 2001000 | TPS 94.0868 | ETA 03:14:27
Time 02:09:45 | Step 904337 / 2001000 | TPS 112.744 | ETA 02:42:06
Time 02:09:55 | Step 905460 / 2001000 | TPS 112 | ETA 02:43:01
Time 02:10:05 | Step 906584 / 2001000 | TPS 112.253 | ETA 02:42:29
Time 02:10:15 | Step 907714 / 2001000 | TPS 112.942 | ETA 02:41:20
Time 02:10:25 | Step 908840 / 2001000 | TPS 112.564 | ETA 02:41:42
Time 02:10:35 | Step 909968 / 2001000 | TPS 112.714 | ETA 02:41:19
Time 02:10:45 | Step 911095 / 2001000 | TPS 112.699 | ETA 02:41:10
Time 02:10:55 | Step 912228 / 2001000 | TPS 113.262 | ETA 02:40:12
Time 02:11:05 | Step 913358 / 2001000 | TPS 112.913 | ETA 02:40:32
Time 02:11:15 | Step 914485 / 2001000 | TPS 112.638 | ETA 02:40:46
Time 02:11:25 | Step 915612 / 2001000 | TPS 112.699 | ETA 02:40:30
Time 02:11:35 | Step 916739 / 2001000 | TPS 112.645 | ETA 02:40:25
Time 02:11:45 | Step 917865 / 2001000 | TPS 112.596 | ETA 02:40:19
Time 02:11:55 | Step 918996 / 2001000 | TPS 113.061 | ETA 02:39:30
Time 02:12:05 | Step 920121 / 2001000 | TPS 112.459 | ETA 02:40:11
Time 02:12:15 | Step 921245 / 2001000 | TPS 112.333 | ETA 02:40:12
Time 02:12:25 | Step 922369 / 2001000 | TPS 112.337 | ETA 02:40:01
Time 02:12:35 | Step 923493 / 2001000 | TPS 112.368 | ETA 02:39:49
Time 02:12:45 | Step 924615 / 2001000 | TPS 112.137 | ETA 02:39:58
Time 02:12:55 | Step 925738 / 2001000 | TPS 112.245 | ETA 02:39:39
Time 02:13:05 | Step 926858 / 2001000 | TPS 111.989 | ETA 02:39:51
Time 02:13:15 | Step 927977 / 2001000 | TPS 111.836 | ETA 02:39:54
Time 02:13:25 | Step 929099 / 2001000 | TPS 111.919 | ETA 02:39:37
Time 02:13:35 | Step 930222 / 2001000 | TPS 112.245 | ETA 02:38:59
Time 02:13:45 | Step 931346 / 2001000 | TPS 112.333 | ETA 02:38:42
Time 02:13:55 | Step 932476 / 2001000 | TPS 112.564 | ETA 02:38:12
Time 02:14:05 | Step 933601 / 2001000 | TPS 112.437 | ETA 02:38:13
Time 02:14:15 | Step 934727 / 2001000 | TPS 112.519 | ETA 02:37:56
Time 02:14:25 | Step 935853 / 2001000 | TPS 112.588 | ETA 02:37:40
Time 02:14:35 | Step 936979 / 2001000 | TPS 112.596 | ETA 02:37:29
Time 02:14:45 | Step 938106 / 2001000 | TPS 112.669 | ETA 02:37:13
Time 02:14:55 | Step 939231 / 2001000 | TPS 112.436 | ETA 02:37:23
Time 02:15:05 | Step 940356 / 2001000 | TPS 112.457 | ETA 02:37:11
Time 02:15:15 | Step 941480 / 2001000 | TPS 112.324 | ETA 02:37:12
Time 02:15:25 | Step 942604 / 2001000 | TPS 112.393 | ETA 02:36:56
Time 02:15:35 | Step 943728 / 2001000 | TPS 112.348 | ETA 02:36:50
Time 02:15:45 | Step 944852 / 2001000 | TPS 112.318 | ETA 02:36:43
Time 02:15:55 | Step 945975 / 2001000 | TPS 112.255 | ETA 02:36:38
Time 02:16:05 | Step 947097 / 2001000 | TPS 112.155 | ETA 02:36:36
Time 02:16:15 | Step 948219 / 2001000 | TPS 112.13 | ETA 02:36:28
Time 02:16:25 | Step 949339 / 2001000 | TPS 111.928 | ETA 02:36:35
Time 02:16:35 | Step 950457 / 2001000 | TPS 111.715 | ETA 02:36:43
Time 02:16:45 | Step 951576 / 2001000 | TPS 111.839 | ETA 02:36:23
Time 02:16:55 | Step 952698 / 2001000 | TPS 112.149 | ETA 02:35:47
Time 02:17:05 | Step 953822 / 2001000 | TPS 112.391 | ETA 02:35:17
Time 02:17:15 | Step 954948 / 2001000 | TPS 112.01 | ETA 02:35:38
Time 02:17:25 | Step 956073 / 2001000 | TPS 112.461 | ETA 02:34:51
Time 02:17:35 | Step 957198 / 2001000 | TPS 112.449 | ETA 02:34:42
Time 02:17:45 | Step 958323 / 2001000 | TPS 112.428 | ETA 02:34:34
Time 02:17:55 | Step 959447 / 2001000 | TPS 112.398 | ETA 02:34:26
Time 02:18:05 | Step 960571 / 2001000 | TPS 112.336 | ETA 02:34:21
Time 02:18:15 | Step 961690 / 2001000 | TPS 111.872 | ETA 02:34:50
Time 02:18:25 | Step 962814 / 2001000 | TPS 112.378 | ETA 02:33:58
Time 02:18:35 | Step 963938 / 2001000 | TPS 112.334 | ETA 02:33:51
Time 02:18:45 | Step 965060 / 2001000 | TPS 111.691 | ETA 02:34:35
Time 02:18:55 | Step 966182 / 2001000 | TPS 112.151 | ETA 02:33:47
Time 02:19:05 | Step 967303 / 2001000 | TPS 112.086 | ETA 02:33:42
Time 02:19:15 | Step 968421 / 2001000 | TPS 111.774 | ETA 02:33:58
Time 02:19:25 | Step 969541 / 2001000 | TPS 111.948 | ETA 02:33:33
Time 02:19:35 | Step 970658 / 2001000 | TPS 111.304 | ETA 02:34:16
Time 02:19:45 | Step 971775 / 2001000 | TPS 111.64 | ETA 02:33:39
Time 02:19:55 | Step 972891 / 2001000 | TPS 111.572 | ETA 02:33:34
Time 02:20:05 | Step 974007 / 2001000 | TPS 111.555 | ETA 02:33:26
Time 02:20:15 | Step 975126 / 2001000 | TPS 111.867 | ETA 02:32:50
Time 02:20:25 | Step 976241 / 2001000 | TPS 111.464 | ETA 02:33:13
Time 02:20:35 | Step 977364 / 2001000 | TPS 112.218 | ETA 02:32:01
Time 02:20:45 | Step 978481 / 2001000 | TPS 111.699 | ETA 02:32:34
Time 02:20:55 | Step 979604 / 2001000 | TPS 112.292 | ETA 02:31:35
Time 02:21:05 | Step 980727 / 2001000 | TPS 112.288 | ETA 02:31:26
Time 02:21:15 | Step 981845 / 2001000 | TPS 111.717 | ETA 02:32:02
Time 02:21:25 | Step 982969 / 2001000 | TPS 112.357 | ETA 02:31:00
Time 02:21:35 | Step 984092 / 2001000 | TPS 112.207 | ETA 02:31:02
Time 02:21:46 | Step 985210 / 2001000 | TPS 111.508 | ETA 02:31:49
Time 02:21:56 | Step 986332 / 2001000 | TPS 112.118 | ETA 02:30:50
Time 02:22:06 | Step 987383 / 2001000 | TPS 105.039 | ETA 02:40:49
Time 02:22:16 | Step 988458 / 2001000 | TPS 107.448 | ETA 02:37:03
Time 02:22:26 | Step 989532 / 2001000 | TPS 107.338 | ETA 02:37:03
Time 02:22:36 | Step 990628 / 2001000 | TPS 108.039 | ETA 02:35:51
Time 02:22:46 | Step 991721 / 2001000 | TPS 109.29 | ETA 02:33:54
Time 02:22:56 | Step 992796 / 2001000 | TPS 107.417 | ETA 02:36:25
Time 02:23:06 | Step 993870 / 2001000 | TPS 107.321 | ETA 02:36:24
Time 02:23:16 | Step 994944 / 2001000 | TPS 107.329 | ETA 02:36:13
Time 02:23:26 | Step 996031 / 2001000 | TPS 108.649 | ETA 02:34:09
Time 02:23:36 | Step 997105 / 2001000 | TPS 107.325 | ETA 02:35:53
Time 02:23:46 | Step 998178 / 2001000 | TPS 107.219 | ETA 02:35:53
Time 02:23:56 | Step 999283 / 2001000 | TPS 110.445 | ETA 02:31:09
Time 02:24:06 | Step 1000400 / 2001000 | TPS 111.646 | ETA 02:29:22
Time 02:24:16 | Step 1001521 / 2001000 | TPS 112.038 | ETA 02:28:40
Time 02:24:26 | Step 1002638 / 2001000 | TPS 111.653 | ETA 02:29:01
Time 02:24:36 | Step 1003569 / 2001000 | TPS 93.0571 | ETA 02:58:38
Time 02:24:46 | Step 1004691 / 2001000 | TPS 112.18 | ETA 02:28:01
Time 02:24:56 | Step 1005809 / 2001000 | TPS 111.756 | ETA 02:28:25
Time 02:25:06 | Step 1006925 / 2001000 | TPS 111.521 | ETA 02:28:33
Time 02:25:16 | Step 1008041 / 2001000 | TPS 111.551 | ETA 02:28:21
Time 02:25:26 | Step 1009163 / 2001000 | TPS 112.113 | ETA 02:27:26
Time 02:25:36 | Step 1010278 / 2001000 | TPS 111.41 | ETA 02:28:12
Time 02:25:46 | Step 1011398 / 2001000 | TPS 111.914 | ETA 02:27:22
Time 02:25:56 | Step 1012511 / 2001000 | TPS 111.213 | ETA 02:28:08
Time 02:26:06 | Step 1013628 / 2001000 | TPS 111.64 | ETA 02:27:24
Time 02:26:16 | Step 1014737 / 2001000 | TPS 110.848 | ETA 02:28:17
Time 02:26:26 | Step 1015852 / 2001000 | TPS 111.432 | ETA 02:27:20
Time 02:26:36 | Step 1016960 / 2001000 | TPS 110.726 | ETA 02:28:07
Time 02:26:46 | Step 1018067 / 2001000 | TPS 110.631 | ETA 02:28:04
Time 02:26:56 | Step 1019180 / 2001000 | TPS 111.222 | ETA 02:27:07
Time 02:27:06 | Step 1020294 / 2001000 | TPS 110.968 | ETA 02:27:17
Time 02:27:16 | Step 1021412 / 2001000 | TPS 111.716 | ETA 02:26:08
Time 02:27:26 | Step 1022525 / 2001000 | TPS 111.239 | ETA 02:26:36
Time 02:27:36 | Step 1023645 / 2001000 | TPS 111.938 | ETA 02:25:31
Time 02:27:46 | Step 1024760 / 2001000 | TPS 111.426 | ETA 02:26:01
Time 02:27:56 | Step 1025875 / 2001000 | TPS 111.479 | ETA 02:25:47
Time 02:28:06 | Step 1026996 / 2001000 | TPS 112.063 | ETA 02:24:51
Time 02:28:16 | Step 1028110 / 2001000 | TPS 111.322 | ETA 02:25:39
Time 02:28:26 | Step 1029224 / 2001000 | TPS 111.325 | ETA 02:25:29
Time 02:28:36 | Step 1030342 / 2001000 | TPS 111.792 | ETA 02:24:42
Time 02:28:46 | Step 1031455 / 2001000 | TPS 111.256 | ETA 02:25:14
Time 02:28:56 | Step 1032566 / 2001000 | TPS 111.065 | ETA 02:25:19
Time 02:29:06 | Step 1033677 / 2001000 | TPS 111.06 | ETA 02:25:09
Time 02:29:16 | Step 1034791 / 2001000 | TPS 111.039 | ETA 02:25:01
Time 02:29:26 | Step 1035906 / 2001000 | TPS 111.465 | ETA 02:24:18
Time 02:29:36 | Step 1037014 / 2001000 | TPS 110.756 | ETA 02:25:03
Time 02:29:46 | Step 1038121 / 2001000 | TPS 110.679 | ETA 02:24:59
Time 02:29:56 | Step 1039226 / 2001000 | TPS 110.438 | ETA 02:25:08
Time 02:30:06 | Step 1040330 / 2001000 | TPS 110.379 | ETA 02:25:03
Time 02:30:16 | Step 1041441 / 2001000 | TPS 111.08 | ETA 02:23:58
Time 02:30:26 | Step 1042548 / 2001000 | TPS 110.648 | ETA 02:24:22
Time 02:30:36 | Step 1043664 / 2001000 | TPS 111.559 | ETA 02:23:01
Time 02:30:46 | Step 1044776 / 2001000 | TPS 111.132 | ETA 02:23:24
Time 02:30:56 | Step 1045887 / 2001000 | TPS 111.073 | ETA 02:23:18
Time 02:31:06 | Step 1046999 / 2001000 | TPS 111.17 | ETA 02:23:01
Time 02:31:16 | Step 1048112 / 2001000 | TPS 111.208 | ETA 02:22:48
Time 02:31:26 | Step 1049224 / 2001000 | TPS 111.169 | ETA 02:22:41
Time 02:31:36 | Step 1050336 / 2001000 | TPS 111.16 | ETA 02:22:32
Time 02:31:46 | Step 1051447 / 2001000 | TPS 111.062 | ETA 02:22:29
Time 02:31:56 | Step 1052563 / 2001000 | TPS 111.583 | ETA 02:21:39
Time 02:32:06 | Step 1053674 / 2001000 | TPS 111.028 | ETA 02:22:12
Time 02:32:16 | Step 1054777 / 2001000 | TPS 110.262 | ETA 02:23:01
Time 02:32:26 | Step 1055886 / 2001000 | TPS 110.864 | ETA 02:22:04
Time 02:32:36 | Step 1056994 / 2001000 | TPS 110.752 | ETA 02:22:03
Time 02:32:46 | Step 1058100 / 2001000 | TPS 110.573 | ETA 02:22:07
Time 02:32:56 | Step 1059205 / 2001000 | TPS 110.497 | ETA 02:22:03
Time 02:33:06 | Step 1060316 / 2001000 | TPS 111.082 | ETA 02:21:08
Time 02:33:16 | Step 1061419 / 2001000 | TPS 110.261 | ETA 02:22:01
Time 02:33:26 | Step 1062523 / 2001000 | TPS 110.329 | ETA 02:21:46
Time 02:33:36 | Step 1063631 / 2001000 | TPS 110.774 | ETA 02:21:01
Time 02:33:46 | Step 1064742 / 2001000 | TPS 111.02 | ETA 02:20:33
Time 02:33:56 | Step 1065852 / 2001000 | TPS 110.98 | ETA 02:20:26
Time 02:34:06 | Step 1066963 / 2001000 | TPS 111.076 | ETA 02:20:09
Time 02:34:16 | Step 1068074 / 2001000 | TPS 111.082 | ETA 02:19:58
Time 02:34:26 | Step 1069185 / 2001000 | TPS 111.022 | ETA 02:19:53
Time 02:34:36 | Step 1070296 / 2001000 | TPS 111.093 | ETA 02:19:37
Time 02:34:46 | Step 1071408 / 2001000 | TPS 111.114 | ETA 02:19:26
Time 02:34:56 | Step 1072518 / 2001000 | TPS 110.959 | ETA 02:19:27
Time 02:35:06 | Step 1073628 / 2001000 | TPS 110.998 | ETA 02:19:14
Time 02:35:16 | Step 1074736 / 2001000 | TPS 110.744 | ETA 02:19:23
Time 02:35:26 | Step 1075843 / 2001000 | TPS 110.685 | ETA 02:19:18
Time 02:35:36 | Step 1076951 / 2001000 | TPS 110.791 | ETA 02:19:00
Time 02:35:46 | Step 1078057 / 2001000 | TPS 110.518 | ETA 02:19:11
Time 02:35:56 | Step 1079163 / 2001000 | TPS 110.323 | ETA 02:19:15
Time 02:36:06 | Step 1080266 / 2001000 | TPS 110.26 | ETA 02:19:10
Time 02:36:16 | Step 1081368 / 2001000 | TPS 110.178 | ETA 02:19:06
Time 02:36:26 | Step 1082475 / 2001000 | TPS 110.673 | ETA 02:18:19
Time 02:36:36 | Step 1083575 / 2001000 | TPS 109.988 | ETA 02:19:01
Time 02:36:46 | Step 1084676 / 2001000 | TPS 110.064 | ETA 02:18:45
Time 02:36:56 | Step 1085781 / 2001000 | TPS 110.464 | ETA 02:18:05
Time 02:37:06 | Step 1086883 / 2001000 | TPS 110.194 | ETA 02:18:15
Time 02:37:16 | Step 1087991 / 2001000 | TPS 110.761 | ETA 02:17:23
Time 02:37:26 | Step 1089099 / 2001000 | TPS 110.783 | ETA 02:17:11
Time 02:37:36 | Step 1090209 / 2001000 | TPS 110.986 | ETA 02:16:46
Time 02:37:46 | Step 1091318 / 2001000 | TPS 110.898 | ETA 02:16:42
Time 02:37:56 | Step 1092421 / 2001000 | TPS 110.291 | ETA 02:17:18
Time 02:38:06 | Step 1093529 / 2001000 | TPS 110.778 | ETA 02:16:31
Time 02:38:16 | Step 1094637 / 2001000 | TPS 110.757 | ETA 02:16:23
Time 02:38:26 | Step 1095738 / 2001000 | TPS 110.018 | ETA 02:17:08
Time 02:38:36 | Step 1096845 / 2001000 | TPS 110.669 | ETA 02:16:09
Time 02:38:46 | Step 1097951 / 2001000 | TPS 110.524 | ETA 02:16:10
Time 02:38:56 | Step 1099055 / 2001000 | TPS 109.837 | ETA 02:16:51
Time 02:39:06 | Step 1100158 / 2001000 | TPS 110.29 | ETA 02:16:07
Time 02:39:16 | Step 1101260 / 2001000 | TPS 110.114 | ETA 02:16:10
Time 02:39:26 | Step 1102362 / 2001000 | TPS 110.192 | ETA 02:15:55
Time 02:39:36 | Step 1103276 / 2001000 | TPS 91.3366 | ETA 02:43:48
Time 02:39:46 | Step 1104376 / 2001000 | TPS 109.962 | ETA 02:15:53
Time 02:39:56 | Step 1105470 / 2001000 | TPS 109.393 | ETA 02:16:26
Time 02:40:06 | Step 1106570 / 2001000 | TPS 109.992 | ETA 02:15:31
Time 02:40:16 | Step 1107671 / 2001000 | TPS 110.061 | ETA 02:15:16
Time 02:40:26 | Step 1108776 / 2001000 | TPS 110.428 | ETA 02:14:39
Time 02:40:36 | Step 1109882 / 2001000 | TPS 110.542 | ETA 02:14:21
Time 02:40:46 | Step 1110989 / 2001000 | TPS 110.669 | ETA 02:14:02
Time 02:40:56 | Step 1112092 / 2001000 | TPS 110.224 | ETA 02:14:24
Time 02:41:06 | Step 1113200 / 2001000 | TPS 110.764 | ETA 02:13:35
Time 02:41:16 | Step 1114302 / 2001000 | TPS 110.16 | ETA 02:14:09
Time 02:41:26 | Step 1115405 / 2001000 | TPS 110.09 | ETA 02:14:04
Time 02:41:36 | Step 1116511 / 2001000 | TPS 110.516 | ETA 02:13:23
Time 02:41:46 | Step 1117617 / 2001000 | TPS 110.597 | ETA 02:13:07
Time 02:41:56 | Step 1118722 / 2001000 | TPS 110.477 | ETA 02:13:06
Time 02:42:06 | Step 1119821 / 2001000 | TPS 109.879 | ETA 02:13:39
Time 02:42:16 | Step 1120924 / 2001000 | TPS 110.219 | ETA 02:13:04
Time 02:42:26 | Step 1122020 / 2001000 | TPS 109.514 | ETA 02:13:46
Time 02:42:36 | Step 1123120 / 2001000 | TPS 109.992 | ETA 02:13:01
Time 02:42:46 | Step 1124219 / 2001000 | TPS 109.864 | ETA 02:13:00
Time 02:42:56 | Step 1125318 / 2001000 | TPS 109.851 | ETA 02:12:51
Time 02:43:06 | Step 1126415 / 2001000 | TPS 109.688 | ETA 02:12:53
Time 02:43:16 | Step 1127511 / 2001000 | TPS 109.006 | ETA 02:13:33
Time 02:43:26 | Step 1128609 / 2001000 | TPS 109.765 | ETA 02:12:27
Time 02:43:36 | Step 1129708 / 2001000 | TPS 109.832 | ETA 02:12:12
Time 02:43:46 | Step 1130803 / 2001000 | TPS 109.456 | ETA 02:12:30
Time 02:43:56 | Step 1131907 / 2001000 | TPS 110.366 | ETA 02:11:14
Time 02:44:06 | Step 1133006 / 2001000 | TPS 109.88 | ETA 02:11:39
Time 02:44:16 | Step 1134111 / 2001000 | TPS 110.476 | ETA 02:10:46
Time 02:44:26 | Step 1135211 / 2001000 | TPS 109.953 | ETA 02:11:14
Time 02:44:36 | Step 1136316 / 2001000 | TPS 110.486 | ETA 02:10:26
Time 02:44:46 | Step 1137414 / 2001000 | TPS 109.739 | ETA 02:11:09
Time 02:44:56 | Step 1138516 / 2001000 | TPS 110.191 | ETA 02:10:27
Time 02:45:06 | Step 1139614 / 2001000 | TPS 109.758 | ETA 02:10:48
Time 02:45:16 | Step 1140718 / 2001000 | TPS 110.323 | ETA 02:09:57
Time 02:45:26 | Step 1141820 / 2001000 | TPS 110.116 | ETA 02:10:02
Time 02:45:36 | Step 1142914 / 2001000 | TPS 109.397 | ETA 02:10:43
Time 02:45:46 | Step 1144013 / 2001000 | TPS 109.812 | ETA 02:10:04
Time 02:45:56 | Step 1145106 / 2001000 | TPS 109.229 | ETA 02:10:35
Time 02:46:06 | Step 1146204 / 2001000 | TPS 109.776 | ETA 02:09:46
Time 02:46:16 | Step 1147296 / 2001000 | TPS 109.198 | ETA 02:10:17
Time 02:46:26 | Step 1148391 / 2001000 | TPS 109.494 | ETA 02:09:46
Time 02:46:36 | Step 1149482 / 2001000 | TPS 109.01 | ETA 02:10:11
Time 02:46:47 | Step 1150580 / 2001000 | TPS 109.216 | ETA 02:09:46
Time 02:46:57 | Step 1151680 / 2001000 | TPS 109.977 | ETA 02:08:42
Time 02:47:07 | Step 1152778 / 2001000 | TPS 109.525 | ETA 02:09:04
Time 02:47:17 | Step 1153881 / 2001000 | TPS 110.263 | ETA 02:08:02
Time 02:47:27 | Step 1154979 / 2001000 | TPS 109.745 | ETA 02:08:29
Time 02:47:37 | Step 1156074 / 2001000 | TPS 109.486 | ETA 02:08:37
Time 02:47:47 | Step 1157177 / 2001000 | TPS 110.208 | ETA 02:07:36
Time 02:47:57 | Step 1158273 / 2001000 | TPS 109.594 | ETA 02:08:09
Time 02:48:07 | Step 1159374 / 2001000 | TPS 110.047 | ETA 02:07:27
Time 02:48:17 | Step 1160469 / 2001000 | TPS 109.437 | ETA 02:08:00
Time 02:48:27 | Step 1161563 / 2001000 | TPS 109.327 | ETA 02:07:58
Time 02:48:37 | Step 1162661 / 2001000 | TPS 109.75 | ETA 02:07:18
Time 02:48:47 | Step 1163753 / 2001000 | TPS 109.174 | ETA 02:07:48
Time 02:48:57 | Step 1164850 / 2001000 | TPS 109.653 | ETA 02:07:05
Time 02:49:07 | Step 1165941 / 2001000 | TPS 109.071 | ETA 02:07:36
Time 02:49:17 | Step 1167031 / 2001000 | TPS 108.949 | ETA 02:07:34
Time 02:49:27 | Step 1168128 / 2001000 | TPS 109.618 | ETA 02:06:37
Time 02:49:37 | Step 1169222 / 2001000 | TPS 108.817 | ETA 02:07:23
Time 02:49:47 | Step 1170316 / 2001000 | TPS 109.389 | ETA 02:06:33
Time 02:49:57 | Step 1171408 / 2001000 | TPS 109.007 | ETA 02:06:50
Time 02:50:07 | Step 1172507 / 2001000 | TPS 109.815 | ETA 02:05:44
Time 02:50:17 | Step 1173601 / 2001000 | TPS 109.357 | ETA 02:06:06
Time 02:50:27 | Step 1174702 / 2001000 | TPS 110.073 | ETA 02:05:06
Time 02:50:37 | Step 1175798 / 2001000 | TPS 109.514 | ETA 02:05:35
Time 02:50:47 | Step 1176893 / 2001000 | TPS 109.432 | ETA 02:05:30
Time 02:50:57 | Step 1177988 / 2001000 | TPS 109.417 | ETA 02:05:21
Time 02:51:07 | Step 1179088 / 2001000 | TPS 109.988 | ETA 02:04:32
Time 02:51:17 | Step 1180183 / 2001000 | TPS 109.49 | ETA 02:04:56
Time 02:51:27 | Step 1181284 / 2001000 | TPS 110.04 | ETA 02:04:09
Time 02:51:37 | Step 1182377 / 2001000 | TPS 109.235 | ETA 02:04:54
Time 02:51:47 | Step 1183468 / 2001000 | TPS 109.034 | ETA 02:04:57
Time 02:51:57 | Step 1184560 / 2001000 | TPS 108.936 | ETA 02:04:54
Time 02:52:07 | Step 1185656 / 2001000 | TPS 109.562 | ETA 02:04:01
Time 02:52:17 | Step 1186740 / 2001000 | TPS 108.242 | ETA 02:05:22
Time 02:52:27 | Step 1187835 / 2001000 | TPS 109.412 | ETA 02:03:52
Time 02:52:37 | Step 1188923 / 2001000 | TPS 108.785 | ETA 02:04:24
Time 02:52:47 | Step 1190010 / 2001000 | TPS 108.616 | ETA 02:04:26
Time 02:52:57 | Step 1191097 / 2001000 | TPS 108.614 | ETA 02:04:16
Time 02:53:07 | Step 1192184 / 2001000 | TPS 108.664 | ETA 02:04:03
Time 02:53:17 | Step 1193277 / 2001000 | TPS 108.838 | ETA 02:03:41
Time 02:53:27 | Step 1194373 / 2001000 | TPS 109.517 | ETA 02:02:45
Time 02:53:37 | Step 1195464 / 2001000 | TPS 109.087 | ETA 02:03:04
Time 02:53:47 | Step 1196556 / 2001000 | TPS 109.178 | ETA 02:02:48
Time 02:53:57 | Step 1197648 / 2001000 | TPS 109.167 | ETA 02:02:38
Time 02:54:07 | Step 1198739 / 2001000 | TPS 109.09 | ETA 02:02:34
Time 02:54:17 | Step 1199831 / 2001000 | TPS 109.178 | ETA 02:02:18
Time 02:54:27 | Step 1200928 / 2001000 | TPS 109.17 | ETA 02:02:08
Time 02:54:37 | Step 1202023 / 2001000 | TPS 109.473 | ETA 02:01:38
Time 02:54:47 | Step 1203096 / 2001000 | TPS 106.964 | ETA 02:04:19
Time 02:54:57 | Step 1204013 / 2001000 | TPS 91.6424 | ETA 02:24:56
Time 02:55:07 | Step 1205102 / 2001000 | TPS 108.873 | ETA 02:01:50
Time 02:55:17 | Step 1206190 / 2001000 | TPS 108.738 | ETA 02:01:49
Time 02:55:27 | Step 1207284 / 2001000 | TPS 109.352 | ETA 02:00:58
Time 02:55:37 | Step 1208372 / 2001000 | TPS 108.733 | ETA 02:01:29
Time 02:55:47 | Step 1209459 / 2001000 | TPS 108.638 | ETA 02:01:26
Time 02:55:57 | Step 1210545 / 2001000 | TPS 108.548 | ETA 02:01:22
Time 02:56:07 | Step 1211630 / 2001000 | TPS 108.458 | ETA 02:01:18
Time 02:56:17 | Step 1212716 / 2001000 | TPS 108.483 | ETA 02:01:06
Time 02:56:27 | Step 1213806 / 2001000 | TPS 108.961 | ETA 02:00:24
Time 02:56:37 | Step 1214891 / 2001000 | TPS 108.492 | ETA 02:00:45
Time 02:56:47 | Step 1215978 / 2001000 | TPS 108.623 | ETA 02:00:27
Time 02:56:57 | Step 1217067 / 2001000 | TPS 108.865 | ETA 02:00:00
Time 02:57:07 | Step 1218158 / 2001000 | TPS 109.024 | ETA 01:59:40
Time 02:57:17 | Step 1219247 / 2001000 | TPS 108.883 | ETA 01:59:39
Time 02:57:27 | Step 1220337 / 2001000 | TPS 108.975 | ETA 01:59:23
Time 02:57:37 | Step 1221427 / 2001000 | TPS 108.955 | ETA 01:59:15
Time 02:57:47 | Step 1222515 / 2001000 | TPS 108.756 | ETA 01:59:18
Time 02:57:57 | Step 1223605 / 2001000 | TPS 108.812 | ETA 01:59:04
Time 02:58:07 | Step 1224697 / 2001000 | TPS 109.167 | ETA 01:58:31
Time 02:58:17 | Step 1225778 / 2001000 | TPS 108.011 | ETA 01:59:37
Time 02:58:27 | Step 1226869 / 2001000 | TPS 109.061 | ETA 01:58:18
Time 02:58:37 | Step 1227954 / 2001000 | TPS 108.42 | ETA 01:58:50
Time 02:58:47 | Step 1229038 / 2001000 | TPS 108.368 | ETA 01:58:43
Time 02:58:57 | Step 1230123 / 2001000 | TPS 108.448 | ETA 01:58:28
Time 02:59:07 | Step 1231207 / 2001000 | TPS 108.34 | ETA 01:58:25
Time 02:59:17 | Step 1232292 / 2001000 | TPS 108.443 | ETA 01:58:08
Time 02:59:27 | Step 1233375 / 2001000 | TPS 108.224 | ETA 01:58:12
Time 02:59:37 | Step 1234456 / 2001000 | TPS 108.075 | ETA 01:58:12
Time 02:59:47 | Step 1235540 / 2001000 | TPS 108.358 | ETA 01:57:44
Time 02:59:57 | Step 1236625 / 2001000 | TPS 108.435 | ETA 01:57:29
Time 03:00:07 | Step 1237705 / 2001000 | TPS 107.919 | ETA 01:57:52
Time 03:00:17 | Step 1238791 / 2001000 | TPS 108.533 | ETA 01:57:02
Time 03:00:27 | Step 1239877 / 2001000 | TPS 108.586 | ETA 01:56:49
Time 03:00:37 | Step 1240965 / 2001000 | TPS 108.792 | ETA 01:56:26
Time 03:00:47 | Step 1242054 / 2001000 | TPS 108.323 | ETA 01:56:46
Time 03:00:57 | Step 1243140 / 2001000 | TPS 108.576 | ETA 01:56:19
Time 03:01:07 | Step 1244225 / 2001000 | TPS 108.499 | ETA 01:56:14
Time 03:01:17 | Step 1245310 / 2001000 | TPS 108.491 | ETA 01:56:05
Time 03:01:27 | Step 1246395 / 2001000 | TPS 108.465 | ETA 01:55:57
Time 03:01:37 | Step 1247481 / 2001000 | TPS 108.551 | ETA 01:55:41
Time 03:01:47 | Step 1248559 / 2001000 | TPS 107.687 | ETA 01:56:27
Time 03:01:57 | Step 1249642 / 2001000 | TPS 108.28 | ETA 01:55:39
Time 03:02:07 | Step 1250723 / 2001000 | TPS 108.099 | ETA 01:55:40
Time 03:02:17 | Step 1251810 / 2001000 | TPS 108.139 | ETA 01:55:28
Time 03:02:27 | Step 1252891 / 2001000 | TPS 108.074 | ETA 01:55:22
Time 03:02:37 | Step 1253972 / 2001000 | TPS 108.011 | ETA 01:55:16
Time 03:02:47 | Step 1255056 / 2001000 | TPS 108.018 | ETA 01:55:05
Time 03:02:57 | Step 1256136 / 2001000 | TPS 107.986 | ETA 01:54:57
Time 03:03:07 | Step 1257218 / 2001000 | TPS 108.168 | ETA 01:54:36
Time 03:03:17 | Step 1258300 / 2001000 | TPS 108.158 | ETA 01:54:26
Time 03:03:27 | Step 1259383 / 2001000 | TPS 108.265 | ETA 01:54:10
Time 03:03:37 | Step 1260468 / 2001000 | TPS 108.444 | ETA 01:53:48
Time 03:03:47 | Step 1261547 / 2001000 | TPS 107.863 | ETA 01:54:15
Time 03:03:57 | Step 1262632 / 2001000 | TPS 108.498 | ETA 01:53:25
Time 03:04:07 | Step 1263718 / 2001000 | TPS 108.516 | ETA 01:53:14
Time 03:04:17 | Step 1264796 / 2001000 | TPS 107.711 | ETA 01:53:54
Time 03:04:27 | Step 1265877 / 2001000 | TPS 108.045 | ETA 01:53:23
Time 03:04:37 | Step 1266958 / 2001000 | TPS 108.018 | ETA 01:53:15
Time 03:04:47 | Step 1268039 / 2001000 | TPS 108.058 | ETA 01:53:03
Time 03:04:57 | Step 1269120 / 2001000 | TPS 108.042 | ETA 01:52:54
Time 03:05:07 | Step 1270195 / 2001000 | TPS 107.427 | ETA 01:53:22
Time 03:05:17 | Step 1271273 / 2001000 | TPS 107.72 | ETA 01:52:54
Time 03:05:27 | Step 1272352 / 2001000 | TPS 107.868 | ETA 01:52:35
Time 03:05:37 | Step 1273424 / 2001000 | TPS 107.147 | ETA 01:53:10
Time 03:05:47 | Step 1274507 / 2001000 | TPS 108.251 | ETA 01:51:51
Time 03:05:57 | Step 1275586 / 2001000 | TPS 107.86 | ETA 01:52:05
Time 03:06:07 | Step 1276660 / 2001000 | TPS 107.382 | ETA 01:52:25
Time 03:06:17 | Step 1277742 / 2001000 | TPS 108.126 | ETA 01:51:29
Time 03:06:27 | Step 1278823 / 2001000 | TPS 108.012 | ETA 01:51:26
Time 03:06:37 | Step 1279900 / 2001000 | TPS 107.613 | ETA 01:51:40
Time 03:06:47 | Step 1280982 / 2001000 | TPS 108.162 | ETA 01:50:56
Time 03:06:57 | Step 1282064 / 2001000 | TPS 108.153 | ETA 01:50:47
Time 03:07:07 | Step 1283147 / 2001000 | TPS 108.243 | ETA 01:50:31
Time 03:07:17 | Step 1284229 / 2001000 | TPS 108.148 | ETA 01:50:27
Time 03:07:27 | Step 1285310 / 2001000 | TPS 108.099 | ETA 01:50:20
Time 03:07:37 | Step 1286385 / 2001000 | TPS 107.451 | ETA 01:50:50
Time 03:07:47 | Step 1287465 / 2001000 | TPS 107.962 | ETA 01:50:09
Time 03:07:58 | Step 1288544 / 2001000 | TPS 107.293 | ETA 01:50:40
Time 03:08:08 | Step 1289623 / 2001000 | TPS 107.876 | ETA 01:49:54
[...]
Time 16:19:28 | Step 3899773 / 4001000 | TPS 41.2572 | ETA 00:40:53
Time 16:19:38 | Step 3900186 / 4001000 | TPS 41.2618 | ETA 00:40:43
Time 16:19:48 | Step 3900599 / 4001000 | TPS 41.2497 | ETA 00:40:33
Time 16:19:58 | Step 3901012 / 4001000 | TPS 41.2594 | ETA 00:40:23
Time 16:20:08 | Step 3901424 / 4001000 | TPS 41.1523 | ETA 00:40:19
Time 16:20:18 | Step 3901836 / 4001000 | TPS 41.1125 | ETA 00:40:12
Time 16:20:28 | Step 3902249 / 4001000 | TPS 41.2491 | ETA 00:39:54
Time 16:20:38 | Step 3902662 / 4001000 | TPS 41.2351 | ETA 00:39:44
Time 16:20:48 | Step 3903072 / 4001000 | TPS 40.9978 | ETA 00:39:48
Time 16:20:58 | Step 3903485 / 4001000 | TPS 41.2554 | ETA 00:39:23
Time 16:21:09 | Step 3903896 / 4001000 | TPS 41.0068 | ETA 00:39:27
Time 16:21:19 | Step 3904309 / 4001000 | TPS 41.2484 | ETA 00:39:04
Time 16:21:29 | Step 3904720 / 4001000 | TPS 41.0153 | ETA 00:39:07
Time 16:21:39 | Step 3905133 / 4001000 | TPS 41.2488 | ETA 00:38:44
Time 16:21:49 | Step 3905544 / 4001000 | TPS 41.0135 | ETA 00:38:47
Time 16:21:59 | Step 3905957 / 4001000 | TPS 41.2612 | ETA 00:38:23
Time 16:22:09 | Step 3906368 / 4001000 | TPS 41.0198 | ETA 00:38:26
Time 16:22:19 | Step 3906781 / 4001000 | TPS 41.2343 | ETA 00:38:04
Time 16:22:29 | Step 3907192 / 4001000 | TPS 41.0183 | ETA 00:38:06
Time 16:22:39 | Step 3907605 / 4001000 | TPS 41.2461 | ETA 00:37:44
Time 16:22:49 | Step 3908018 / 4001000 | TPS 41.2463 | ETA 00:37:34
Time 16:22:59 | Step 3908368 / 4001000 | TPS 34.8316 | ETA 00:44:19
Time 16:23:09 | Step 3908688 / 4001000 | TPS 31.9752 | ETA 00:48:06
Time 16:23:19 | Step 3909099 / 4001000 | TPS 41.0059 | ETA 00:37:21
Time 16:23:29 | Step 3909512 / 4001000 | TPS 41.2408 | ETA 00:36:58
Time 16:23:39 | Step 3909925 / 4001000 | TPS 41.2449 | ETA 00:36:48
Time 16:23:49 | Step 3910336 / 4001000 | TPS 41.004 | ETA 00:36:51
Time 16:23:59 | Step 3910749 / 4001000 | TPS 41.2427 | ETA 00:36:28
Time 16:24:09 | Step 3911162 / 4001000 | TPS 41.2458 | ETA 00:36:18
Time 16:24:19 | Step 3911573 / 4001000 | TPS 41.0117 | ETA 00:36:20
Time 16:24:29 | Step 3911986 / 4001000 | TPS 41.2446 | ETA 00:35:58
Time 16:24:39 | Step 3912397 / 4001000 | TPS 41.0101 | ETA 00:36:00
Time 16:24:49 | Step 3912810 / 4001000 | TPS 41.2381 | ETA 00:35:38
Time 16:24:59 | Step 3913223 / 4001000 | TPS 41.2411 | ETA 00:35:28
Time 16:25:09 | Step 3913636 / 4001000 | TPS 41.2354 | ETA 00:35:18
Time 16:25:19 | Step 3914047 / 4001000 | TPS 41.0035 | ETA 00:35:20
Time 16:25:29 | Step 3914460 / 4001000 | TPS 41.2432 | ETA 00:34:58
Time 16:25:39 | Step 3914873 / 4001000 | TPS 41.2326 | ETA 00:34:48
Time 16:25:49 | Step 3915286 / 4001000 | TPS 41.2304 | ETA 00:34:38
Time 16:25:59 | Step 3915699 / 4001000 | TPS 41.23 | ETA 00:34:28
Time 16:26:09 | Step 3916109 / 4001000 | TPS 40.9961 | ETA 00:34:30
Time 16:26:19 | Step 3916522 / 4001000 | TPS 41.2219 | ETA 00:34:09
Time 16:26:29 | Step 3916935 / 4001000 | TPS 41.2302 | ETA 00:33:58
Time 16:26:39 | Step 3917345 / 4001000 | TPS 40.9886 | ETA 00:34:00
Time 16:26:49 | Step 3917758 / 4001000 | TPS 41.2244 | ETA 00:33:39
Time 16:26:59 | Step 3918171 / 4001000 | TPS 41.2297 | ETA 00:33:28
Time 16:27:09 | Step 3918584 / 4001000 | TPS 41.2259 | ETA 00:33:19
Time 16:27:19 | Step 3918994 / 4001000 | TPS 40.9839 | ETA 00:33:20
Time 16:27:29 | Step 3919407 / 4001000 | TPS 41.2192 | ETA 00:32:59
Time 16:27:39 | Step 3919820 / 4001000 | TPS 41.2157 | ETA 00:32:49
Time 16:27:49 | Step 3920233 / 4001000 | TPS 41.2239 | ETA 00:32:39
Time 16:27:59 | Step 3920646 / 4001000 | TPS 41.211 | ETA 00:32:29
Time 16:28:09 | Step 3921057 / 4001000 | TPS 40.9852 | ETA 00:32:30
Time 16:28:19 | Step 3921470 / 4001000 | TPS 41.2194 | ETA 00:32:09
Time 16:28:29 | Step 3921883 / 4001000 | TPS 41.2244 | ETA 00:31:59
Time 16:28:39 | Step 3922293 / 4001000 | TPS 40.9913 | ETA 00:32:00
Time 16:28:49 | Step 3922703 / 4001000 | TPS 40.9897 | ETA 00:31:50
Time 16:28:59 | Step 3923113 / 4001000 | TPS 40.9875 | ETA 00:31:40
Time 16:29:09 | Step 3923526 / 4001000 | TPS 41.222 | ETA 00:31:19
Time 16:29:19 | Step 3923939 / 4001000 | TPS 41.2263 | ETA 00:31:09
Time 16:29:29 | Step 3924352 / 4001000 | TPS 41.2174 | ETA 00:30:59
Time 16:29:39 | Step 3924762 / 4001000 | TPS 40.9851 | ETA 00:31:00
Time 16:29:49 | Step 3925175 / 4001000 | TPS 41.214 | ETA 00:30:39
Time 16:29:59 | Step 3925585 / 4001000 | TPS 40.9803 | ETA 00:30:40
Time 16:30:09 | Step 3925998 / 4001000 | TPS 41.2202 | ETA 00:30:19
Time 16:30:19 | Step 3926411 / 4001000 | TPS 41.221 | ETA 00:30:09
Time 16:30:29 | Step 3926821 / 4001000 | TPS 40.9849 | ETA 00:30:09
Time 16:30:39 | Step 3927234 / 4001000 | TPS 41.217 | ETA 00:29:49
Time 16:30:49 | Step 3927647 / 4001000 | TPS 41.2179 | ETA 00:29:39
Time 16:30:59 | Step 3928060 / 4001000 | TPS 41.2146 | ETA 00:29:29
Time 16:31:09 | Step 3928470 / 4001000 | TPS 40.9859 | ETA 00:29:29
Time 16:31:19 | Step 3928883 / 4001000 | TPS 41.2081 | ETA 00:29:10
Time 16:31:30 | Step 3929296 / 4001000 | TPS 41.212 | ETA 00:28:59
Time 16:31:40 | Step 3929709 / 4001000 | TPS 41.2137 | ETA 00:28:49
Time 16:31:50 | Step 3930122 / 4001000 | TPS 41.2131 | ETA 00:28:39
Time 16:32:00 | Step 3930535 / 4001000 | TPS 41.2059 | ETA 00:28:30
Time 16:32:10 | Step 3930948 / 4001000 | TPS 41.2123 | ETA 00:28:19
Time 16:32:20 | Step 3931360 / 4001000 | TPS 41.1978 | ETA 00:28:10
Time 16:32:30 | Step 3931772 / 4001000 | TPS 41.1992 | ETA 00:28:00
Time 16:32:40 | Step 3932184 / 4001000 | TPS 41.199 | ETA 00:27:50
Time 16:32:50 | Step 3932596 / 4001000 | TPS 41.1995 | ETA 00:27:40
Time 16:33:00 | Step 3933008 / 4001000 | TPS 41.1979 | ETA 00:27:30
Time 16:33:10 | Step 3933421 / 4001000 | TPS 41.2035 | ETA 00:27:20
Time 16:33:20 | Step 3933833 / 4001000 | TPS 41.1951 | ETA 00:27:10
Time 16:33:30 | Step 3934246 / 4001000 | TPS 41.2043 | ETA 00:27:00
Time 16:33:40 | Step 3934658 / 4001000 | TPS 41.1957 | ETA 00:26:50
Time 16:33:50 | Step 3935070 / 4001000 | TPS 41.1948 | ETA 00:26:40
Time 16:34:00 | Step 3935483 / 4001000 | TPS 41.2041 | ETA 00:26:30
Time 16:34:10 | Step 3935895 / 4001000 | TPS 41.1988 | ETA 00:26:20
Time 16:34:20 | Step 3936307 / 4001000 | TPS 41.1976 | ETA 00:26:10
Time 16:34:30 | Step 3936719 / 4001000 | TPS 41.1948 | ETA 00:26:00
Time 16:34:40 | Step 3937129 / 4001000 | TPS 40.9514 | ETA 00:25:59
Time 16:34:50 | Step 3937544 / 4001000 | TPS 41.4165 | ETA 00:25:32
Time 16:35:00 | Step 3937956 / 4001000 | TPS 41.1865 | ETA 00:25:30
Time 16:35:10 | Step 3938368 / 4001000 | TPS 41.189 | ETA 00:25:20
Time 16:35:20 | Step 3938780 / 4001000 | TPS 41.1704 | ETA 00:25:11
Time 16:35:30 | Step 3939192 / 4001000 | TPS 41.1773 | ETA 00:25:01
Time 16:35:40 | Step 3939604 / 4001000 | TPS 41.1826 | ETA 00:24:50
Time 16:35:50 | Step 3940016 / 4001000 | TPS 41.1832 | ETA 00:24:40
Time 16:36:00 | Step 3940428 / 4001000 | TPS 41.1916 | ETA 00:24:30
Time 16:36:10 | Step 3940840 / 4001000 | TPS 41.1884 | ETA 00:24:20
Time 16:36:20 | Step 3941250 / 4001000 | TPS 40.9541 | ETA 00:24:18
Time 16:36:30 | Step 3941662 / 4001000 | TPS 41.1891 | ETA 00:24:00
Time 16:36:40 | Step 3942074 / 4001000 | TPS 41.1901 | ETA 00:23:50
Time 16:36:50 | Step 3942486 / 4001000 | TPS 41.1916 | ETA 00:23:40
Time 16:37:00 | Step 3942898 / 4001000 | TPS 41.1814 | ETA 00:23:30
Time 16:37:10 | Step 3943310 / 4001000 | TPS 41.1812 | ETA 00:23:20
Time 16:37:20 | Step 3943722 / 4001000 | TPS 41.1729 | ETA 00:23:11
Time 16:37:30 | Step 3944134 / 4001000 | TPS 41.1787 | ETA 00:23:00
Time 16:37:40 | Step 3944549 / 4001000 | TPS 41.4136 | ETA 00:22:43
Time 16:37:50 | Step 3944961 / 4001000 | TPS 41.1823 | ETA 00:22:40
Time 16:38:00 | Step 3945373 / 4001000 | TPS 41.1787 | ETA 00:22:30
Time 16:38:10 | Step 3945785 / 4001000 | TPS 41.1779 | ETA 00:22:20
Time 16:38:20 | Step 3946197 / 4001000 | TPS 41.1741 | ETA 00:22:11
Time 16:38:30 | Step 3946609 / 4001000 | TPS 41.1731 | ETA 00:22:01
Time 16:38:40 | Step 3947021 / 4001000 | TPS 41.1704 | ETA 00:21:51
Time 16:38:50 | Step 3947433 / 4001000 | TPS 41.1774 | ETA 00:21:40
Time 16:39:00 | Step 3947848 / 4001000 | TPS 41.4108 | ETA 00:21:23
Time 16:39:10 | Step 3948260 / 4001000 | TPS 41.1761 | ETA 00:21:20
Time 16:39:20 | Step 3948670 / 4001000 | TPS 40.9493 | ETA 00:21:17
Time 16:39:30 | Step 3949085 / 4001000 | TPS 41.411 | ETA 00:20:53
Time 16:39:40 | Step 3949497 / 4001000 | TPS 41.1821 | ETA 00:20:50
Time 16:39:50 | Step 3949909 / 4001000 | TPS 41.1675 | ETA 00:20:41
Time 16:40:00 | Step 3950321 / 4001000 | TPS 41.1681 | ETA 00:20:31
Time 16:40:10 | Step 3950731 / 4001000 | TPS 40.9383 | ETA 00:20:27
Time 16:40:20 | Step 3951143 / 4001000 | TPS 41.1671 | ETA 00:20:11
Time 16:40:30 | Step 3951558 / 4001000 | TPS 41.4044 | ETA 00:19:54
Time 16:40:40 | Step 3951970 / 4001000 | TPS 41.1754 | ETA 00:19:50
Time 16:40:50 | Step 3952382 / 4001000 | TPS 41.1633 | ETA 00:19:41
Time 16:41:00 | Step 3952794 / 4001000 | TPS 41.1608 | ETA 00:19:31
Time 16:41:10 | Step 3953206 / 4001000 | TPS 41.1613 | ETA 00:19:21
Time 16:41:20 | Step 3953618 / 4001000 | TPS 41.1566 | ETA 00:19:11
Time 16:41:30 | Step 3954030 / 4001000 | TPS 41.1601 | ETA 00:19:01
Time 16:41:40 | Step 3954442 / 4001000 | TPS 41.1696 | ETA 00:18:50
Time 16:41:50 | Step 3954856 / 4001000 | TPS 41.3964 | ETA 00:18:34
Time 16:42:00 | Step 3955268 / 4001000 | TPS 41.163 | ETA 00:18:30
Time 16:42:10 | Step 3955680 / 4001000 | TPS 41.1659 | ETA 00:18:20
Time 16:42:20 | Step 3956094 / 4001000 | TPS 41.3915 | ETA 00:18:04
Time 16:42:30 | Step 3956506 / 4001000 | TPS 41.1527 | ETA 00:18:01
Time 16:42:40 | Step 3956918 / 4001000 | TPS 41.1622 | ETA 00:17:50
Time 16:42:50 | Step 3957332 / 4001000 | TPS 41.3876 | ETA 00:17:35
Time 16:43:00 | Step 3957744 / 4001000 | TPS 41.1584 | ETA 00:17:30
Time 16:43:10 | Step 3958158 / 4001000 | TPS 41.3898 | ETA 00:17:15
Time 16:43:20 | Step 3958570 / 4001000 | TPS 41.1518 | ETA 00:17:11
Time 16:43:30 | Step 3958982 / 4001000 | TPS 41.1566 | ETA 00:17:00
Time 16:43:40 | Step 3959396 / 4001000 | TPS 41.3782 | ETA 00:16:45
Time 16:43:50 | Step 3959808 / 4001000 | TPS 41.1499 | ETA 00:16:41
Time 16:44:00 | Step 3960220 / 4001000 | TPS 41.1399 | ETA 00:16:31
Time 16:44:10 | Step 3960634 / 4001000 | TPS 41.3864 | ETA 00:16:15
Time 16:44:20 | Step 3961046 / 4001000 | TPS 41.1569 | ETA 00:16:10
Time 16:44:30 | Step 3961460 / 4001000 | TPS 41.3957 | ETA 00:15:55
Time 16:44:40 | Step 3961872 / 4001000 | TPS 41.1573 | ETA 00:15:50
Time 16:44:50 | Step 3962284 / 4001000 | TPS 41.1479 | ETA 00:15:40
Time 16:45:00 | Step 3962696 / 4001000 | TPS 41.153 | ETA 00:15:30
Time 16:45:10 | Step 3963108 / 4001000 | TPS 41.1559 | ETA 00:15:20
Time 16:45:20 | Step 3963522 / 4001000 | TPS 41.3857 | ETA 00:15:05
Time 16:45:30 | Step 3963934 / 4001000 | TPS 41.1565 | ETA 00:15:00
Time 16:45:40 | Step 3964346 / 4001000 | TPS 41.1481 | ETA 00:14:50
Time 16:45:50 | Step 3964760 / 4001000 | TPS 41.3837 | ETA 00:14:35
Time 16:46:00 | Step 3965172 / 4001000 | TPS 41.1476 | ETA 00:14:30
Time 16:46:10 | Step 3965584 / 4001000 | TPS 41.1491 | ETA 00:14:20
Time 16:46:20 | Step 3965998 / 4001000 | TPS 41.3828 | ETA 00:14:05
Time 16:46:30 | Step 3966410 / 4001000 | TPS 41.1457 | ETA 00:14:00
Time 16:46:40 | Step 3966824 / 4001000 | TPS 41.3784 | ETA 00:13:45
Time 16:46:50 | Step 3967236 / 4001000 | TPS 41.1478 | ETA 00:13:40
Time 16:47:00 | Step 3967650 / 4001000 | TPS 41.3801 | ETA 00:13:25
Time 16:47:10 | Step 3968062 / 4001000 | TPS 41.1439 | ETA 00:13:20
Time 16:47:20 | Step 3968474 / 4001000 | TPS 41.1386 | ETA 00:13:10
Time 16:47:30 | Step 3968888 / 4001000 | TPS 41.3762 | ETA 00:12:56
Time 16:47:40 | Step 3969300 / 4001000 | TPS 41.1405 | ETA 00:12:50
Time 16:47:50 | Step 3969712 / 4001000 | TPS 41.1387 | ETA 00:12:40
Time 16:48:00 | Step 3970126 / 4001000 | TPS 41.3709 | ETA 00:12:26
Time 16:48:10 | Step 3970538 / 4001000 | TPS 41.1412 | ETA 00:12:20
Time 16:48:20 | Step 3970952 / 4001000 | TPS 41.3733 | ETA 00:12:06
Time 16:48:30 | Step 3971364 / 4001000 | TPS 41.1262 | ETA 00:12:00
Time 16:48:40 | Step 3971778 / 4001000 | TPS 41.3684 | ETA 00:11:46
Time 16:48:50 | Step 3972192 / 4001000 | TPS 41.3673 | ETA 00:11:36
Time 16:49:00 | Step 3972604 / 4001000 | TPS 41.1341 | ETA 00:11:30
Time 16:49:10 | Step 3973018 / 4001000 | TPS 41.3628 | ETA 00:11:16
Time 16:49:20 | Step 3973432 / 4001000 | TPS 41.3711 | ETA 00:11:06
Time 16:49:30 | Step 3973844 / 4001000 | TPS 41.1363 | ETA 00:11:00
Time 16:49:40 | Step 3974258 / 4001000 | TPS 41.3701 | ETA 00:10:46
Time 16:49:50 | Step 3974672 / 4001000 | TPS 41.3582 | ETA 00:10:36
Time 16:50:00 | Step 3975086 / 4001000 | TPS 41.3612 | ETA 00:10:26
Time 16:50:11 | Step 3975498 / 4001000 | TPS 41.138 | ETA 00:10:19
Time 16:50:21 | Step 3975912 / 4001000 | TPS 41.3612 | ETA 00:10:06
Time 16:50:31 | Step 3976326 / 4001000 | TPS 41.371 | ETA 00:09:56
Time 16:50:41 | Step 3976738 / 4001000 | TPS 41.1328 | ETA 00:09:49
Time 16:50:51 | Step 3977150 / 4001000 | TPS 41.1187 | ETA 00:09:40
Time 16:51:01 | Step 3977564 / 4001000 | TPS 41.3619 | ETA 00:09:26
Time 16:51:11 | Step 3977978 / 4001000 | TPS 41.3658 | ETA 00:09:16
Time 16:51:21 | Step 3978390 / 4001000 | TPS 41.1254 | ETA 00:09:09
Time 16:51:31 | Step 3978804 / 4001000 | TPS 41.3561 | ETA 00:08:56
Time 16:51:41 | Step 3979218 / 4001000 | TPS 41.3575 | ETA 00:08:46
Time 16:51:51 | Step 3979632 / 4001000 | TPS 41.3545 | ETA 00:08:36
Time 16:52:01 | Step 3980044 / 4001000 | TPS 41.1161 | ETA 00:08:29
Time 16:52:11 | Step 3980460 / 4001000 | TPS 41.5958 | ETA 00:08:13
Time 16:52:21 | Step 3980872 / 4001000 | TPS 41.1227 | ETA 00:08:09
Time 16:52:31 | Step 3981286 / 4001000 | TPS 41.3603 | ETA 00:07:56
Time 16:52:41 | Step 3981700 / 4001000 | TPS 41.3588 | ETA 00:07:46
Time 16:52:51 | Step 3982114 / 4001000 | TPS 41.3608 | ETA 00:07:36
Time 16:53:01 | Step 3982528 / 4001000 | TPS 41.3608 | ETA 00:07:26
Time 16:53:11 | Step 3982940 / 4001000 | TPS 41.1308 | ETA 00:07:19
Time 16:53:21 | Step 3983354 / 4001000 | TPS 41.3614 | ETA 00:07:06
Time 16:53:31 | Step 3983768 / 4001000 | TPS 41.3576 | ETA 00:06:56
Time 16:53:41 | Step 3984182 / 4001000 | TPS 41.3566 | ETA 00:06:46
Time 16:53:51 | Step 3984596 / 4001000 | TPS 41.3567 | ETA 00:06:36
Time 16:54:01 | Step 3985010 / 4001000 | TPS 41.355 | ETA 00:06:26
Time 16:54:11 | Step 3985422 / 4001000 | TPS 41.1285 | ETA 00:06:18
Time 16:54:21 | Step 3985836 / 4001000 | TPS 41.3518 | ETA 00:06:06
Time 16:54:31 | Step 3986250 / 4001000 | TPS 41.3475 | ETA 00:05:56
Time 16:54:41 | Step 3986664 / 4001000 | TPS 41.3464 | ETA 00:05:46
Time 16:54:51 | Step 3987076 / 4001000 | TPS 41.1127 | ETA 00:05:38
Time 16:55:01 | Step 3987490 / 4001000 | TPS 41.3498 | ETA 00:05:26
Time 16:55:11 | Step 3987904 / 4001000 | TPS 41.3418 | ETA 00:05:16
Time 16:55:21 | Step 3988316 / 4001000 | TPS 41.1168 | ETA 00:05:08
Time 16:55:31 | Step 3988730 / 4001000 | TPS 41.3477 | ETA 00:04:56
Time 16:55:41 | Step 3989144 / 4001000 | TPS 41.3405 | ETA 00:04:46
Time 16:55:51 | Step 3989556 / 4001000 | TPS 41.1107 | ETA 00:04:38
Time 16:56:01 | Step 3989970 / 4001000 | TPS 41.3374 | ETA 00:04:26
Time 16:56:11 | Step 3990386 / 4001000 | TPS 41.5738 | ETA 00:04:15
Time 16:56:21 | Step 3990800 / 4001000 | TPS 41.3368 | ETA 00:04:06
Time 16:56:31 | Step 3991214 / 4001000 | TPS 41.3454 | ETA 00:03:56
Time 16:56:41 | Step 3991628 / 4001000 | TPS 41.3433 | ETA 00:03:46
Time 16:56:51 | Step 3992044 / 4001000 | TPS 41.5761 | ETA 00:03:35
Time 16:57:01 | Step 3992456 / 4001000 | TPS 41.1128 | ETA 00:03:27
Time 16:57:11 | Step 3992872 / 4001000 | TPS 41.5756 | ETA 00:03:15
Time 16:57:21 | Step 3993284 / 4001000 | TPS 41.1068 | ETA 00:03:07
Time 16:57:31 | Step 3993698 / 4001000 | TPS 41.3398 | ETA 00:02:56
Time 16:57:41 | Step 3994112 / 4001000 | TPS 41.3401 | ETA 00:02:46
Time 16:57:51 | Step 3994528 / 4001000 | TPS 41.5749 | ETA 00:02:35
Time 16:58:01 | Step 3994942 / 4001000 | TPS 41.3447 | ETA 00:02:26
Time 16:58:11 | Step 3995356 / 4001000 | TPS 41.3335 | ETA 00:02:16
Time 16:58:21 | Step 3995772 / 4001000 | TPS 41.5623 | ETA 00:02:05
Time 16:58:31 | Step 3996188 / 4001000 | TPS 41.5677 | ETA 00:01:55
Time 16:58:41 | Step 3996602 / 4001000 | TPS 41.3322 | ETA 00:01:46
Time 16:58:51 | Step 3997016 / 4001000 | TPS 41.331 | ETA 00:01:36
Time 16:59:01 | Step 3997430 / 4001000 | TPS 41.334 | ETA 00:01:26
Time 16:59:11 | Step 3997846 / 4001000 | TPS 41.5648 | ETA 00:01:15
Time 16:59:21 | Step 3998260 / 4001000 | TPS 41.3314 | ETA 00:01:06
Time 16:59:31 | Step 3998674 / 4001000 | TPS 41.3314 | ETA 00:00:56
Time 16:59:41 | Step 3999090 / 4001000 | TPS 41.5621 | ETA 00:00:45
Time 16:59:51 | Step 3999504 / 4001000 | TPS 41.3238 | ETA 00:00:36
Time 17:00:01 | Step 3999923 / 4001000 | TPS 41.8027 | ETA 00:00:25
Time 17:00:11 | Step 4000337 / 4001000 | TPS 41.333 | ETA 00:00:16
Time 17:00:21 | Step 4000753 / 4001000 | TPS 41.565 | ETA 00:00:05
Time 17:00:27 | Step 4001000 / 4001000 | TPS 41.0109 | ETA 00:00:00
Average TPS: 46.8624
---------
-- Neighborlist stats:
30444 normal updates / 1 forced updates / 0 dangerous updates
n_neigh_min: 0 / n_neigh_max: 296 / n_neigh_avg: 245.341
shortest rebuild period: 36
-- Cell list stats:
Dimension: 25, 25, 28
n_min    : 0 / n_max: 76 / n_avg: 14.2857
** run complete **
benchmark.py:035  |          hoomd.run(steps, limit_hours=limit_hours);
** starting run **
Time 17:00:37 | Step 4001414 / 4071000 | TPS 41.3197 | ETA 00:28:04
notice(2): Ending run at time step 4001829 as 0.00555556 hours have passed
Time 17:00:47 | Step 4001829 / 4071000 | TPS 41.5505 | ETA 00:27:44
Average TPS: 41.4349
---------
-- Neighborlist stats:
2 normal updates / 1 forced updates / 0 dangerous updates
n_neigh_min: 0 / n_neigh_max: 296 / n_neigh_avg: 245.348
shortest rebuild period: 99
-- Cell list stats:
Dimension: 25, 25, 28
n_min    : 0 / n_max: 77 / n_avg: 14.2857
** run complete **
benchmark.py:035  |          hoomd.run(steps, limit_hours=limit_hours);
** starting run **
Time 17:00:57 | Step 4002243 / 4071829 | TPS 41.3083 | ETA 00:28:04
notice(2): Ending run at time step 4002656 as 0.00555556 hours have passed
Time 17:01:07 | Step 4002656 / 4071829 | TPS 41.3115 | ETA 00:27:54
Average TPS: 41.3099
---------
-- Neighborlist stats:
3 normal updates / 1 forced updates / 0 dangerous updates
n_neigh_min: 0 / n_neigh_max: 296 / n_neigh_avg: 245.362
shortest rebuild period: 99
-- Cell list stats:
Dimension: 25, 25, 28
n_min    : 0 / n_max: 77 / n_avg: 14.2857
** run complete **
benchmark.py:035  |          hoomd.run(steps, limit_hours=limit_hours);
** starting run **
Time 17:01:18 | Step 4003070 / 4072656 | TPS 41.3443 | ETA 00:28:03
notice(2): Ending run at time step 4003483 as 0.00555556 hours have passed
Time 17:01:27 | Step 4003483 / 4072656 | TPS 41.3258 | ETA 00:27:53
Average TPS: 41.335
---------
-- Neighborlist stats:
3 normal updates / 1 forced updates / 0 dangerous updates
n_neigh_min: 0 / n_neigh_max: 296 / n_neigh_avg: 245.365
shortest rebuild period: 99
-- Cell list stats:
Dimension: 25, 25, 28
n_min    : 0 / n_max: 76 / n_avg: 14.2857
** run complete **
benchmark.py:035  |          hoomd.run(steps, limit_hours=limit_hours);
** starting run **
Time 17:01:38 | Step 4003897 / 4073483 | TPS 41.3478 | ETA 00:28:02
notice(2): Ending run at time step 4004313 as 0.00555556 hours have passed
Time 17:01:48 | Step 4004313 / 4073483 | TPS 41.5537 | ETA 00:27:44
Average TPS: 41.4506
---------
-- Neighborlist stats:
2 normal updates / 1 forced updates / 0 dangerous updates
n_neigh_min: 0 / n_neigh_max: 296 / n_neigh_avg: 245.364
shortest rebuild period: 99
-- Cell list stats:
Dimension: 25, 25, 28
n_min    : 0 / n_max: 76 / n_avg: 14.2857
** run complete **
Hours to complete 10e6 steps: 67.1243291017
benchmark.py:099  |  meta.dump_metadata(filename = workspace+"/metadata.json", user = {'mps': ptps, 'tps': tps});
----------------------------------------
PBS job ended
Begin PBS Epilogue Sat Feb 10 07:31:00 CST 2018 1518269460
JobID: 22520759.qsched03.quest.it.northwestern.edu
Session ID:			1309
Resources Used:			cput=17:01:54,energy_used=0,mem=686704kb,vmem=157466432kb,walltime=17:02:06
Job exit value:			0
----------------------------------------
