----------------------------------------
PBS: Begin PBS Prologue Thu Feb  8 16:50:03 CST 2018 1518130203
PBS: Job ID:		22514677.qsched03.quest.it.northwestern.edu
PBS: Username:		jam119
PBS: Group:		jam119
PBS: Executing queue:     buyin
PBS: Job name:		test-bench
PBS: Account:		b1030
----------------------------------------
   The following variables are not
   guaranteed to be the same in 
   prologue and the job run script  
----------------------------------------
PBS: Temporary Dir($TMPDIR):	/tmp/22514677.qsched03.quest.it.northwestern.edu
PBS: Master Node($PBS_MSHOST):		qgpu6004
PBS: node file($PBS_NODEFILE):  /hpc/opt/torque6/nodes/qgpu6004/aux//22514677.qsched03.quest.it.northwestern.edu
PBS: PATH (in prologue) : /bin:/usr/bin
PBS: WORKDIR ($PBS_O_WORKDIR) is:  /projects/b1021/Jaime_pmf/test-wall
----------------------------------------
PBS: End PBS Prologue Thu Feb  8 16:50:03 CST 2018 1518130203
HOOMD-blue v2.1.8-722-gde67388 CUDA (7.5) SINGLE SSE SSE2 
Compiled: 02/07/2018
Copyright 2009-2017 The Regents of the University of Michigan.
-----
You are using HOOMD-blue. Please cite the following:
* J A Anderson, C D Lorenz, and A Travesset. "General purpose molecular dynamics
  simulations fully implemented on graphics processing units", Journal of
  Computational Physics 227 (2008) 5342--5359
* J Glaser, T D Nguyen, J A Anderson, P Liu, F Spiga, J A Millan, D C Morse, and
  S C Glotzer. "Strong scaling of general-purpose molecular dynamics simulations
  on GPUs", Computer Physics Communications 192 (2015) 97--107
-----
HOOMD-blue is running on the following GPU(s):
 [0]             Tesla K80  13 SM_3.7 @ 0.823 GHz, 11439 MiB DRAM
benchmark.py:029  |  system = deprecated.init.read_xml("54000.xml")
notice(2): Reading 54000.xml...
notice(2): --- hoomd_xml file read summary
notice(2): 54000 positions at timestep 0
notice(2): 54000 masses
notice(2): 54000 diameters
notice(2): 2 particle types
notice(2): 54000 particle body values
notice(2): 54000 charges
notice(2): Group "all" created containing 54000 particles
benchmark.py:030  |  group_A = group.type(name='a-particles', type = 'A')
notice(2): Group "a-particles" created containing 53999 particles
benchmark.py:033  |  nl =nlist.cell()
benchmark.py:034  |  c.sorter.disable()
benchmark.py:035  |  slj= pair.slj(r_cut = 3.5, nlist=nl)
notice(2): Notice: slj set d_max=1.0
benchmark.py:036  |  slj.set_params(mode="shift")
pair.py:801  |          pair.set_params(self, mode=mode);
benchmark.py:037  |  slj.pair_coeff.set('A','A' , epsilon=1.0, sigma=1.0 )
benchmark.py:038  |  slj.pair_coeff.set('A','B' , epsilon=0.0, sigma=1.0 )
benchmark.py:039  |  slj.pair_coeff.set('B','B' , epsilon=0.0, sigma=1.0 )
benchmark.py:049  |  wall_force_slj=wall.lj(walls, r_cut=4.0,active_planes=[0,1])
benchmark.py:050  |  wall_force_slj.force_coeff.set('A', epsilon= 1.5,r_cut=4,sigma=sigma,r_extrap = 0.05)
benchmark.py:051  |  wall_force_slj.force_coeff.set('B', epsilon= 0,r_cut=4,sigma=sigma,r_extrap = 0.05)
benchmark.py:063  |  logger = analyze.log(quantities=['temperature' , 'potential_energy', 'kinetic_energy'],
												 period=5e2, filename='log.log', overwrite=True)
benchmark.py:070  |  integrate.mode_standard(dt=0.001)
benchmark.py:073  |  integrator = integrate.nve(group_A , limit = 0.0001)
benchmark.py:074  |  zero = update.zero_momentum(period =100)
benchmark.py:076  |  run(1e3)
notice(2): -- Neighborlist exclusion statistics -- :
notice(2): Particles with 0 exclusions             : 54000
notice(2): Neighbors included by diameter          : yes
notice(2): Neighbors excluded when in the same body: no
** starting run **
Time 00:00:01 | Step 1000 / 1000 | TPS 840.241 | ETA 00:00:00
Average TPS: 840.213
---------
-- Neighborlist stats:
0 normal updates / 0 forced updates / 0 dangerous updates
n_neigh_min: 33 / n_neigh_max: 58 / n_neigh_avg: 56.6
shortest rebuild period: 100
-- Cell list stats:
Dimension: 15, 15, 17
n_min    : 0 / n_max: 20 / n_avg: 14.1176
** run complete **
benchmark.py:077  |  integrator.disable()
benchmark.py:078  |  zero.disable()
benchmark.py:085  |  integrator = integrate.nvt(group=group_A , tau = 0.65 , kT = 0.001)
benchmark.py:086  |  integrator.set_params(kT=variant.linear_interp(points=[(0, logger.query('temperature')), (2e6, 0.75)]))
benchmark.py:088  |  run(2e6)
** starting run **
Time 00:00:11 | Step 14576 / 2001000 | TPS 1357.57 | ETA 00:24:23
Time 00:00:21 | Step 26778 / 2001000 | TPS 1219.77 | ETA 00:26:58
Time 00:00:31 | Step 36742 / 2001000 | TPS 996.353 | ETA 00:32:51
Time 00:00:41 | Step 45413 / 2001000 | TPS 867.073 | ETA 00:37:35
Time 00:00:51 | Step 53199 / 2001000 | TPS 778.526 | ETA 00:41:41
Time 00:01:01 | Step 60359 / 2001000 | TPS 715.967 | ETA 00:45:10
Time 00:01:11 | Step 67142 / 2001000 | TPS 678.239 | ETA 00:47:31
Time 00:01:21 | Step 73607 / 2001000 | TPS 646.444 | ETA 00:49:41
Time 00:01:31 | Step 79829 / 2001000 | TPS 621.754 | ETA 00:51:29
Time 00:01:41 | Step 85884 / 2001000 | TPS 605.458 | ETA 00:52:43
Time 00:01:51 | Step 91738 / 2001000 | TPS 585.317 | ETA 00:54:21
Time 00:02:01 | Step 97497 / 2001000 | TPS 575.814 | ETA 00:55:05
Time 00:02:11 | Step 103086 / 2001000 | TPS 558.895 | ETA 00:56:35
Time 00:02:21 | Step 108715 / 2001000 | TPS 562.627 | ETA 00:56:03
Time 00:02:31 | Step 114292 / 2001000 | TPS 557.628 | ETA 00:56:23
Time 00:02:41 | Step 119780 / 2001000 | TPS 548.779 | ETA 00:57:08
Time 00:02:51 | Step 125190 / 2001000 | TPS 540.906 | ETA 00:57:47
Time 00:03:01 | Step 130517 / 2001000 | TPS 532.673 | ETA 00:58:31
Time 00:03:11 | Step 135832 / 2001000 | TPS 531.457 | ETA 00:58:29
Time 00:03:21 | Step 141165 / 2001000 | TPS 533.253 | ETA 00:58:07
Time 00:03:31 | Step 146486 / 2001000 | TPS 532.055 | ETA 00:58:05
Time 00:03:41 | Step 151751 / 2001000 | TPS 526.483 | ETA 00:58:32
Time 00:03:51 | Step 156990 / 2001000 | TPS 523.861 | ETA 00:58:40
Time 00:04:01 | Step 162202 / 2001000 | TPS 521.114 | ETA 00:58:48
Time 00:04:11 | Step 167411 / 2001000 | TPS 520.817 | ETA 00:58:40
Time 00:04:21 | Step 172599 / 2001000 | TPS 518.786 | ETA 00:58:44
Time 00:04:31 | Step 177762 / 2001000 | TPS 516.267 | ETA 00:58:51
Time 00:04:41 | Step 182909 / 2001000 | TPS 514.673 | ETA 00:58:52
Time 00:04:51 | Step 188038 / 2001000 | TPS 512.805 | ETA 00:58:55
Time 00:05:01 | Step 193146 / 2001000 | TPS 510.771 | ETA 00:58:59
Time 00:05:11 | Step 198259 / 2001000 | TPS 511.228 | ETA 00:58:46
Time 00:05:21 | Step 203242 / 2001000 | TPS 498.258 | ETA 01:00:08
Time 00:05:31 | Step 208330 / 2001000 | TPS 508.758 | ETA 00:58:43
Time 00:05:41 | Step 213425 / 2001000 | TPS 509.432 | ETA 00:58:28
Time 00:05:51 | Step 218495 / 2001000 | TPS 506.948 | ETA 00:58:36
Time 00:06:01 | Step 223562 / 2001000 | TPS 506.639 | ETA 00:58:28
Time 00:06:11 | Step 228635 / 2001000 | TPS 507.22 | ETA 00:58:14
Time 00:06:21 | Step 233690 / 2001000 | TPS 505.441 | ETA 00:58:16
Time 00:06:31 | Step 238750 / 2001000 | TPS 505.938 | ETA 00:58:03
Time 00:06:41 | Step 243806 / 2001000 | TPS 505.538 | ETA 00:57:55
Time 00:06:51 | Step 248849 / 2001000 | TPS 504.24 | ETA 00:57:54
Time 00:07:01 | Step 253882 / 2001000 | TPS 503.256 | ETA 00:57:51
Time 00:07:11 | Step 258891 / 2001000 | TPS 500.776 | ETA 00:57:58
Time 00:07:21 | Step 263891 / 2001000 | TPS 499.957 | ETA 00:57:54
Time 00:07:31 | Step 268885 / 2001000 | TPS 499.382 | ETA 00:57:48
Time 00:07:41 | Step 273854 / 2001000 | TPS 496.884 | ETA 00:57:55
Time 00:07:51 | Step 278822 / 2001000 | TPS 496.776 | ETA 00:57:46
Time 00:08:01 | Step 283786 / 2001000 | TPS 496.35 | ETA 00:57:39
Time 00:08:11 | Step 288734 / 2001000 | TPS 494.557 | ETA 00:57:42
Time 00:08:21 | Step 293702 / 2001000 | TPS 496.754 | ETA 00:57:16
Time 00:08:31 | Step 298682 / 2001000 | TPS 497.966 | ETA 00:56:58
Time 00:08:41 | Step 303701 / 2001000 | TPS 501.824 | ETA 00:56:22
Time 00:08:51 | Step 309030 / 2001000 | TPS 532.856 | ETA 00:52:55
Time 00:09:01 | Step 314355 / 2001000 | TPS 532.435 | ETA 00:52:47
Time 00:09:11 | Step 319687 / 2001000 | TPS 533.12 | ETA 00:52:33
Time 00:09:21 | Step 325013 / 2001000 | TPS 532.524 | ETA 00:52:27
Time 00:09:31 | Step 330343 / 2001000 | TPS 532.998 | ETA 00:52:14
Time 00:09:41 | Step 335676 / 2001000 | TPS 533.264 | ETA 00:52:02
Time 00:09:51 | Step 340993 / 2001000 | TPS 531.616 | ETA 00:52:02
Time 00:10:01 | Step 346316 / 2001000 | TPS 532.216 | ETA 00:51:49
Time 00:10:11 | Step 351637 / 2001000 | TPS 532.093 | ETA 00:51:39
Time 00:10:21 | Step 356938 / 2001000 | TPS 530.006 | ETA 00:51:41
Time 00:10:31 | Step 362228 / 2001000 | TPS 528.968 | ETA 00:51:38
Time 00:10:41 | Step 367516 / 2001000 | TPS 528.755 | ETA 00:51:29
Time 00:10:51 | Step 372794 / 2001000 | TPS 527.762 | ETA 00:51:25
Time 00:11:01 | Step 378055 / 2001000 | TPS 526.019 | ETA 00:51:25
Time 00:11:11 | Step 383316 / 2001000 | TPS 526.099 | ETA 00:51:14
Time 00:11:21 | Step 388565 / 2001000 | TPS 524.851 | ETA 00:51:12
Time 00:11:31 | Step 393815 / 2001000 | TPS 524.979 | ETA 00:51:01
Time 00:11:41 | Step 399060 / 2001000 | TPS 524.463 | ETA 00:50:54
Time 00:11:51 | Step 404172 / 2001000 | TPS 510.738 | ETA 00:52:06
Time 00:12:01 | Step 409405 / 2001000 | TPS 523.228 | ETA 00:50:41
Time 00:12:11 | Step 414647 / 2001000 | TPS 524.156 | ETA 00:50:26
Time 00:12:21 | Step 419884 / 2001000 | TPS 523.668 | ETA 00:50:19
Time 00:12:31 | Step 425107 / 2001000 | TPS 522.296 | ETA 00:50:17
Time 00:12:41 | Step 430341 / 2001000 | TPS 523.396 | ETA 00:50:00
Time 00:12:51 | Step 435583 / 2001000 | TPS 524.138 | ETA 00:49:46
Time 00:13:01 | Step 440855 / 2001000 | TPS 527.185 | ETA 00:49:19
Time 00:13:11 | Step 446124 / 2001000 | TPS 526.52 | ETA 00:49:13
Time 00:13:21 | Step 451407 / 2001000 | TPS 528.279 | ETA 00:48:53
Time 00:13:31 | Step 456689 / 2001000 | TPS 528.18 | ETA 00:48:43
Time 00:13:41 | Step 461963 / 2001000 | TPS 527.389 | ETA 00:48:38
Time 00:13:51 | Step 467234 / 2001000 | TPS 527.024 | ETA 00:48:30
Time 00:14:01 | Step 472514 / 2001000 | TPS 527.917 | ETA 00:48:15
Time 00:14:11 | Step 477792 / 2001000 | TPS 527.728 | ETA 00:48:06
Time 00:14:21 | Step 483055 / 2001000 | TPS 526.28 | ETA 00:48:04
Time 00:14:31 | Step 488323 / 2001000 | TPS 526.732 | ETA 00:47:51
Time 00:14:41 | Step 493590 / 2001000 | TPS 526.623 | ETA 00:47:42
Time 00:14:51 | Step 498860 / 2001000 | TPS 526.991 | ETA 00:47:30
Time 00:15:01 | Step 503959 / 2001000 | TPS 509.854 | ETA 00:48:56
Time 00:15:11 | Step 509219 / 2001000 | TPS 525.933 | ETA 00:47:16
Time 00:15:21 | Step 514471 / 2001000 | TPS 525.109 | ETA 00:47:10
Time 00:15:31 | Step 519712 / 2001000 | TPS 524.044 | ETA 00:47:06
Time 00:15:41 | Step 524938 / 2001000 | TPS 522.517 | ETA 00:47:04
Time 00:15:51 | Step 530168 / 2001000 | TPS 522.955 | ETA 00:46:52
Time 00:16:01 | Step 535392 / 2001000 | TPS 522.336 | ETA 00:46:45
Time 00:16:11 | Step 540602 / 2001000 | TPS 520.94 | ETA 00:46:43
Time 00:16:21 | Step 545807 / 2001000 | TPS 520.427 | ETA 00:46:36
Time 00:16:31 | Step 551011 / 2001000 | TPS 520.341 | ETA 00:46:26
Time 00:16:41 | Step 556214 / 2001000 | TPS 520.254 | ETA 00:46:17
Time 00:16:51 | Step 561406 / 2001000 | TPS 519.165 | ETA 00:46:12
Time 00:17:01 | Step 566599 / 2001000 | TPS 519.24 | ETA 00:46:02
Time 00:17:11 | Step 571796 / 2001000 | TPS 519.651 | ETA 00:45:50
Time 00:17:21 | Step 576994 / 2001000 | TPS 519.709 | ETA 00:45:40
Time 00:17:31 | Step 582175 / 2001000 | TPS 518.058 | ETA 00:45:38
Time 00:17:41 | Step 587367 / 2001000 | TPS 519.124 | ETA 00:45:23
Time 00:17:51 | Step 592568 / 2001000 | TPS 520.031 | ETA 00:45:08
Time 00:18:01 | Step 597764 / 2001000 | TPS 519.558 | ETA 00:45:00
Time 00:18:11 | Step 602848 / 2001000 | TPS 508.318 | ETA 00:45:50
Time 00:18:21 | Step 608035 / 2001000 | TPS 518.651 | ETA 00:44:45
Time 00:18:31 | Step 613234 / 2001000 | TPS 519.899 | ETA 00:44:29
Time 00:18:41 | Step 618430 / 2001000 | TPS 519.54 | ETA 00:44:21
Time 00:18:51 | Step 623626 / 2001000 | TPS 519.593 | ETA 00:44:10
Time 00:19:01 | Step 628813 / 2001000 | TPS 518.68 | ETA 00:44:05
Time 00:19:11 | Step 634002 / 2001000 | TPS 518.808 | ETA 00:43:54
Time 00:19:21 | Step 639187 / 2001000 | TPS 518.177 | ETA 00:43:48
Time 00:19:31 | Step 644365 / 2001000 | TPS 517.731 | ETA 00:43:40
Time 00:19:41 | Step 649555 / 2001000 | TPS 518.992 | ETA 00:43:23
Time 00:19:51 | Step 654725 / 2001000 | TPS 516.945 | ETA 00:43:24
Time 00:20:01 | Step 659878 / 2001000 | TPS 515.267 | ETA 00:43:22
Time 00:20:11 | Step 665030 / 2001000 | TPS 515.131 | ETA 00:43:13
Time 00:20:21 | Step 670174 / 2001000 | TPS 514.362 | ETA 00:43:07
Time 00:20:31 | Step 675316 / 2001000 | TPS 514.179 | ETA 00:42:58
Time 00:20:41 | Step 680460 / 2001000 | TPS 514.395 | ETA 00:42:47
Time 00:20:51 | Step 685605 / 2001000 | TPS 514.427 | ETA 00:42:37
Time 00:21:01 | Step 690738 / 2001000 | TPS 513.28 | ETA 00:42:32
Time 00:21:11 | Step 695869 / 2001000 | TPS 513.1 | ETA 00:42:23
Time 00:21:21 | Step 700995 / 2001000 | TPS 512.569 | ETA 00:42:16
Time 00:21:31 | Step 705991 / 2001000 | TPS 499.577 | ETA 00:43:12
Time 00:21:41 | Step 711113 / 2001000 | TPS 512.156 | ETA 00:41:58
Time 00:21:51 | Step 716242 / 2001000 | TPS 512.826 | ETA 00:41:45
Time 00:22:01 | Step 721370 / 2001000 | TPS 512.781 | ETA 00:41:35
Time 00:22:11 | Step 726511 / 2001000 | TPS 514.088 | ETA 00:41:19
Time 00:22:21 | Step 731660 / 2001000 | TPS 514.868 | ETA 00:41:05
Time 00:22:31 | Step 736664 / 2001000 | TPS 500.362 | ETA 00:42:06
Time 00:22:41 | Step 741832 / 2001000 | TPS 516.714 | ETA 00:40:36
Time 00:22:51 | Step 746981 / 2001000 | TPS 514.856 | ETA 00:40:35
Time 00:23:01 | Step 752148 / 2001000 | TPS 516.606 | ETA 00:40:17
Time 00:23:11 | Step 757306 / 2001000 | TPS 515.759 | ETA 00:40:11
Time 00:23:21 | Step 762473 / 2001000 | TPS 516.611 | ETA 00:39:57
Time 00:23:31 | Step 767628 / 2001000 | TPS 515.479 | ETA 00:39:52
Time 00:23:41 | Step 772787 / 2001000 | TPS 515.86 | ETA 00:39:40
Time 00:23:51 | Step 777943 / 2001000 | TPS 515.54 | ETA 00:39:32
Time 00:24:01 | Step 783088 / 2001000 | TPS 514.422 | ETA 00:39:27
Time 00:24:11 | Step 788230 / 2001000 | TPS 514.142 | ETA 00:39:18
Time 00:24:21 | Step 793360 / 2001000 | TPS 512.951 | ETA 00:39:14
Time 00:24:31 | Step 798494 / 2001000 | TPS 513.316 | ETA 00:39:02
Time 00:24:41 | Step 803483 / 2001000 | TPS 498.84 | ETA 00:40:00
Time 00:24:51 | Step 808605 / 2001000 | TPS 512.153 | ETA 00:38:48
Time 00:25:01 | Step 813700 / 2001000 | TPS 509.432 | ETA 00:38:50
Time 00:25:11 | Step 818795 / 2001000 | TPS 509.469 | ETA 00:38:40
Time 00:25:21 | Step 823887 / 2001000 | TPS 509.109 | ETA 00:38:32
Time 00:25:31 | Step 828980 / 2001000 | TPS 509.267 | ETA 00:38:21
Time 00:25:41 | Step 834055 / 2001000 | TPS 507.499 | ETA 00:38:19
Time 00:25:51 | Step 839135 / 2001000 | TPS 507.917 | ETA 00:38:07
Time 00:26:01 | Step 844214 / 2001000 | TPS 507.812 | ETA 00:37:57
Time 00:26:11 | Step 849298 / 2001000 | TPS 508.351 | ETA 00:37:45
Time 00:26:21 | Step 854388 / 2001000 | TPS 508.436 | ETA 00:37:35
Time 00:26:31 | Step 859506 / 2001000 | TPS 511.736 | ETA 00:37:10
Time 00:26:41 | Step 864628 / 2001000 | TPS 512.134 | ETA 00:36:58
Time 00:26:51 | Step 869753 / 2001000 | TPS 512.412 | ETA 00:36:47
Time 00:27:01 | Step 874884 / 2001000 | TPS 513.051 | ETA 00:36:34
Time 00:27:11 | Step 880010 / 2001000 | TPS 512.514 | ETA 00:36:27
Time 00:27:21 | Step 885132 / 2001000 | TPS 512.109 | ETA 00:36:18
Time 00:27:31 | Step 890238 / 2001000 | TPS 510.527 | ETA 00:36:15
Time 00:27:41 | Step 895371 / 2001000 | TPS 513.282 | ETA 00:35:54
Time 00:27:51 | Step 900493 / 2001000 | TPS 512.155 | ETA 00:35:48
Time 00:28:01 | Step 905485 / 2001000 | TPS 499.161 | ETA 00:36:34
Time 00:28:11 | Step 910606 / 2001000 | TPS 512.022 | ETA 00:35:29
Time 00:28:21 | Step 915731 / 2001000 | TPS 512.452 | ETA 00:35:17
Time 00:28:31 | Step 920853 / 2001000 | TPS 512.182 | ETA 00:35:08
Time 00:28:41 | Step 925973 / 2001000 | TPS 511.949 | ETA 00:34:59
Time 00:28:51 | Step 931087 / 2001000 | TPS 511.352 | ETA 00:34:52
Time 00:29:01 | Step 936208 / 2001000 | TPS 512.038 | ETA 00:34:39
Time 00:29:11 | Step 941312 / 2001000 | TPS 510.336 | ETA 00:34:36
Time 00:29:21 | Step 946415 / 2001000 | TPS 510.25 | ETA 00:34:26
Time 00:29:31 | Step 951506 / 2001000 | TPS 509.048 | ETA 00:34:21
Time 00:29:41 | Step 956597 / 2001000 | TPS 509.083 | ETA 00:34:11
Time 00:29:51 | Step 961672 / 2001000 | TPS 507.479 | ETA 00:34:08
Time 00:30:01 | Step 966726 / 2001000 | TPS 505.371 | ETA 00:34:06
Time 00:30:11 | Step 971785 / 2001000 | TPS 505.852 | ETA 00:33:54
Time 00:30:21 | Step 976835 / 2001000 | TPS 504.966 | ETA 00:33:48
Time 00:30:31 | Step 981886 / 2001000 | TPS 505.054 | ETA 00:33:37
Time 00:30:41 | Step 986936 / 2001000 | TPS 504.98 | ETA 00:33:28
Time 00:30:51 | Step 991978 / 2001000 | TPS 504.142 | ETA 00:33:21
Time 00:31:01 | Step 997022 / 2001000 | TPS 504.354 | ETA 00:33:10
Time 00:31:11 | Step 1002055 / 2001000 | TPS 503.238 | ETA 00:33:05
Time 00:31:21 | Step 1006979 / 2001000 | TPS 492.346 | ETA 00:33:38
Time 00:31:31 | Step 1012048 / 2001000 | TPS 506.841 | ETA 00:32:31
Time 00:31:41 | Step 1017125 / 2001000 | TPS 507.669 | ETA 00:32:18
Time 00:31:51 | Step 1022214 / 2001000 | TPS 508.849 | ETA 00:32:03
Time 00:32:01 | Step 1027299 / 2001000 | TPS 508.456 | ETA 00:31:55
Time 00:32:11 | Step 1032389 / 2001000 | TPS 508.942 | ETA 00:31:43
Time 00:32:21 | Step 1037472 / 2001000 | TPS 508.257 | ETA 00:31:35
Time 00:32:31 | Step 1042537 / 2001000 | TPS 506.499 | ETA 00:31:32
Time 00:32:41 | Step 1047613 / 2001000 | TPS 507.529 | ETA 00:31:18
Time 00:32:51 | Step 1052627 / 2001000 | TPS 501.176 | ETA 00:31:32
Time 00:33:02 | Step 1057634 / 2001000 | TPS 499.895 | ETA 00:31:27
Time 00:33:12 | Step 1062624 / 2001000 | TPS 498.926 | ETA 00:31:20
Time 00:33:22 | Step 1067679 / 2001000 | TPS 505.008 | ETA 00:30:48
Time 00:33:32 | Step 1072751 / 2001000 | TPS 507.13 | ETA 00:30:30
Time 00:33:42 | Step 1077801 / 2001000 | TPS 504.955 | ETA 00:30:28
Time 00:33:52 | Step 1082840 / 2001000 | TPS 503.872 | ETA 00:30:22
Time 00:34:02 | Step 1087884 / 2001000 | TPS 504.39 | ETA 00:30:10
Time 00:34:12 | Step 1092923 / 2001000 | TPS 503.369 | ETA 00:30:03
Time 00:34:22 | Step 1097948 / 2001000 | TPS 502.44 | ETA 00:29:57
Time 00:34:32 | Step 1102934 / 2001000 | TPS 498.443 | ETA 00:30:01
Time 00:34:42 | Step 1107884 / 2001000 | TPS 494.934 | ETA 00:30:04
Time 00:34:52 | Step 1112919 / 2001000 | TPS 503.473 | ETA 00:29:23
Time 00:35:02 | Step 1117951 / 2001000 | TPS 503.186 | ETA 00:29:14
Time 00:35:12 | Step 1122986 / 2001000 | TPS 503.427 | ETA 00:29:04
Time 00:35:22 | Step 1128027 / 2001000 | TPS 504.061 | ETA 00:28:51
Time 00:35:32 | Step 1133063 / 2001000 | TPS 503.549 | ETA 00:28:43
Time 00:35:42 | Step 1138107 / 2001000 | TPS 504.374 | ETA 00:28:30
Time 00:35:52 | Step 1143144 / 2001000 | TPS 503.655 | ETA 00:28:23
Time 00:36:02 | Step 1148184 / 2001000 | TPS 503.955 | ETA 00:28:12
Time 00:36:12 | Step 1153232 / 2001000 | TPS 504.793 | ETA 00:27:59
Time 00:36:22 | Step 1158278 / 2001000 | TPS 504.031 | ETA 00:27:51
Time 00:36:32 | Step 1163336 / 2001000 | TPS 505.549 | ETA 00:27:36
Time 00:36:42 | Step 1168389 / 2001000 | TPS 505.271 | ETA 00:27:27
Time 00:36:52 | Step 1173450 / 2001000 | TPS 505.53 | ETA 00:27:16
Time 00:37:02 | Step 1178510 / 2001000 | TPS 505.981 | ETA 00:27:05
Time 00:37:12 | Step 1183568 / 2001000 | TPS 505.779 | ETA 00:26:56
Time 00:37:22 | Step 1188618 / 2001000 | TPS 504.92 | ETA 00:26:48
Time 00:37:32 | Step 1193647 / 2001000 | TPS 502.845 | ETA 00:26:45
Time 00:37:42 | Step 1198686 / 2001000 | TPS 503.858 | ETA 00:26:32
Time 00:37:52 | Step 1203577 / 2001000 | TPS 489.071 | ETA 00:27:10
Time 00:38:02 | Step 1208607 / 2001000 | TPS 502.959 | ETA 00:26:15
Time 00:38:12 | Step 1213630 / 2001000 | TPS 502.24 | ETA 00:26:07
Time 00:38:22 | Step 1218641 / 2001000 | TPS 501.03 | ETA 00:26:01
Time 00:38:32 | Step 1223654 / 2001000 | TPS 501.276 | ETA 00:25:50
Time 00:38:42 | Step 1228657 / 2001000 | TPS 500.267 | ETA 00:25:43
Time 00:38:52 | Step 1233639 / 2001000 | TPS 498.198 | ETA 00:25:40
Time 00:39:02 | Step 1238625 / 2001000 | TPS 498.312 | ETA 00:25:29
Time 00:39:12 | Step 1243610 / 2001000 | TPS 498.414 | ETA 00:25:19
Time 00:39:22 | Step 1248600 / 2001000 | TPS 498.94 | ETA 00:25:07
Time 00:39:32 | Step 1253576 / 2001000 | TPS 497.549 | ETA 00:25:02
Time 00:39:42 | Step 1258551 / 2001000 | TPS 497.436 | ETA 00:24:52
Time 00:39:52 | Step 1263525 / 2001000 | TPS 497.364 | ETA 00:24:42
Time 00:40:02 | Step 1268502 / 2001000 | TPS 497.625 | ETA 00:24:31
Time 00:40:12 | Step 1273497 / 2001000 | TPS 499.495 | ETA 00:24:16
Time 00:40:22 | Step 1278490 / 2001000 | TPS 499.224 | ETA 00:24:07
Time 00:40:32 | Step 1283500 / 2001000 | TPS 500.667 | ETA 00:23:53
Time 00:40:42 | Step 1288512 / 2001000 | TPS 501.177 | ETA 00:23:41
Time 00:40:52 | Step 1293526 / 2001000 | TPS 501.368 | ETA 00:23:31
Time 00:41:02 | Step 1298538 / 2001000 | TPS 501.151 | ETA 00:23:21
Time 00:41:12 | Step 1303435 / 2001000 | TPS 489.633 | ETA 00:23:44
Time 00:41:22 | Step 1308430 / 2001000 | TPS 499.421 | ETA 00:23:06
Time 00:41:32 | Step 1313444 / 2001000 | TPS 501.354 | ETA 00:22:51
Time 00:41:42 | Step 1318466 / 2001000 | TPS 502.131 | ETA 00:22:39
Time 00:41:52 | Step 1323477 / 2001000 | TPS 501.082 | ETA 00:22:32
Time 00:42:02 | Step 1328482 / 2001000 | TPS 500.425 | ETA 00:22:23
Time 00:42:12 | Step 1333484 / 2001000 | TPS 500.135 | ETA 00:22:14
Time 00:42:22 | Step 1338485 / 2001000 | TPS 500.041 | ETA 00:22:04
Time 00:42:32 | Step 1343444 / 2001000 | TPS 495.826 | ETA 00:22:06
Time 00:42:42 | Step 1348425 / 2001000 | TPS 497.603 | ETA 00:21:51
Time 00:42:52 | Step 1353407 / 2001000 | TPS 498.125 | ETA 00:21:40
Time 00:43:02 | Step 1358378 / 2001000 | TPS 497.078 | ETA 00:21:32
Time 00:43:12 | Step 1363338 / 2001000 | TPS 495.81 | ETA 00:21:26
Time 00:43:22 | Step 1368298 / 2001000 | TPS 495.985 | ETA 00:21:15
Time 00:43:32 | Step 1373259 / 2001000 | TPS 496.082 | ETA 00:21:05
Time 00:43:42 | Step 1378214 / 2001000 | TPS 495.449 | ETA 00:20:57
Time 00:43:52 | Step 1383176 / 2001000 | TPS 496.135 | ETA 00:20:45
Time 00:44:02 | Step 1388135 / 2001000 | TPS 495.876 | ETA 00:20:35
Time 00:44:12 | Step 1393092 / 2001000 | TPS 495.642 | ETA 00:20:26
Time 00:44:22 | Step 1398050 / 2001000 | TPS 495.731 | ETA 00:20:16
Time 00:44:32 | Step 1403004 / 2001000 | TPS 495.336 | ETA 00:20:07
Time 00:44:42 | Step 1407838 / 2001000 | TPS 483.361 | ETA 00:20:27
Time 00:44:52 | Step 1412815 / 2001000 | TPS 497.652 | ETA 00:19:41
Time 00:45:02 | Step 1417779 / 2001000 | TPS 496.387 | ETA 00:19:34
Time 00:45:12 | Step 1422759 / 2001000 | TPS 497.982 | ETA 00:19:21
Time 00:45:22 | Step 1427743 / 2001000 | TPS 497.991 | ETA 00:19:11
Time 00:45:32 | Step 1432729 / 2001000 | TPS 498.529 | ETA 00:18:59
Time 00:45:42 | Step 1437713 / 2001000 | TPS 498.36 | ETA 00:18:50
Time 00:45:52 | Step 1442692 / 2001000 | TPS 497.841 | ETA 00:18:41
Time 00:46:02 | Step 1447661 / 2001000 | TPS 496.886 | ETA 00:18:33
Time 00:46:12 | Step 1452637 / 2001000 | TPS 497.531 | ETA 00:18:22
Time 00:46:22 | Step 1457602 / 2001000 | TPS 496.442 | ETA 00:18:14
Time 00:46:32 | Step 1462555 / 2001000 | TPS 495.232 | ETA 00:18:07
Time 00:46:42 | Step 1467512 / 2001000 | TPS 495.678 | ETA 00:17:56
Time 00:46:52 | Step 1472460 / 2001000 | TPS 494.79 | ETA 00:17:48
Time 00:47:02 | Step 1477407 / 2001000 | TPS 494.65 | ETA 00:17:38
Time 00:47:12 | Step 1482351 / 2001000 | TPS 494.35 | ETA 00:17:29
Time 00:47:22 | Step 1487292 / 2001000 | TPS 494.066 | ETA 00:17:19
Time 00:47:32 | Step 1492223 / 2001000 | TPS 492.809 | ETA 00:17:12
Time 00:47:42 | Step 1497161 / 2001000 | TPS 493.788 | ETA 00:17:00
Time 00:47:52 | Step 1502094 / 2001000 | TPS 493.256 | ETA 00:16:51
Time 00:48:02 | Step 1506900 / 2001000 | TPS 480.526 | ETA 00:17:08
Time 00:48:12 | Step 1511844 / 2001000 | TPS 494.382 | ETA 00:16:29
Time 00:48:22 | Step 1516802 / 2001000 | TPS 495.748 | ETA 00:16:16
Time 00:48:32 | Step 1521770 / 2001000 | TPS 496.743 | ETA 00:16:04
Time 00:48:42 | Step 1526736 / 2001000 | TPS 496.544 | ETA 00:15:55
Time 00:48:52 | Step 1531715 / 2001000 | TPS 497.9 | ETA 00:15:42
Time 00:49:02 | Step 1536706 / 2001000 | TPS 499.046 | ETA 00:15:30
Time 00:49:12 | Step 1541688 / 2001000 | TPS 498.138 | ETA 00:15:22
Time 00:49:22 | Step 1546664 / 2001000 | TPS 497.589 | ETA 00:15:13
Time 00:49:32 | Step 1551655 / 2001000 | TPS 498.911 | ETA 00:15:00
Time 00:49:42 | Step 1556631 / 2001000 | TPS 497.549 | ETA 00:14:53
Time 00:49:52 | Step 1561608 / 2001000 | TPS 497.641 | ETA 00:14:42
Time 00:50:02 | Step 1566553 / 2001000 | TPS 494.397 | ETA 00:14:38
Time 00:50:12 | Step 1571529 / 2001000 | TPS 497.537 | ETA 00:14:23
Time 00:50:22 | Step 1576496 / 2001000 | TPS 496.613 | ETA 00:14:14
Time 00:50:32 | Step 1581453 / 2001000 | TPS 495.699 | ETA 00:14:06
Time 00:50:42 | Step 1586418 / 2001000 | TPS 496.414 | ETA 00:13:55
Time 00:50:52 | Step 1591375 / 2001000 | TPS 495.684 | ETA 00:13:46
Time 00:51:02 | Step 1596324 / 2001000 | TPS 494.898 | ETA 00:13:37
Time 00:51:12 | Step 1601273 / 2001000 | TPS 494.873 | ETA 00:13:27
Time 00:51:22 | Step 1606041 / 2001000 | TPS 476.773 | ETA 00:13:48
Time 00:51:32 | Step 1610900 / 2001000 | TPS 485.899 | ETA 00:13:22
Time 00:51:42 | Step 1615760 / 2001000 | TPS 485.927 | ETA 00:13:12
Time 00:51:52 | Step 1620615 / 2001000 | TPS 485.437 | ETA 00:13:03
Time 00:52:02 | Step 1625472 / 2001000 | TPS 485.612 | ETA 00:12:53
Time 00:52:12 | Step 1630329 / 2001000 | TPS 485.611 | ETA 00:12:43
Time 00:52:22 | Step 1635184 / 2001000 | TPS 485.443 | ETA 00:12:33
Time 00:52:32 | Step 1640021 / 2001000 | TPS 483.621 | ETA 00:12:26
Time 00:52:42 | Step 1644812 / 2001000 | TPS 479.057 | ETA 00:12:23
Time 00:52:52 | Step 1649592 / 2001000 | TPS 477.996 | ETA 00:12:15
Time 00:53:02 | Step 1654387 / 2001000 | TPS 479.007 | ETA 00:12:03
Time 00:53:12 | Step 1659248 / 2001000 | TPS 486.052 | ETA 00:11:43
Time 00:53:22 | Step 1664109 / 2001000 | TPS 486.083 | ETA 00:11:33
Time 00:53:32 | Step 1668968 / 2001000 | TPS 485.885 | ETA 00:11:23
Time 00:53:42 | Step 1673823 / 2001000 | TPS 485.377 | ETA 00:11:14
Time 00:53:52 | Step 1678692 / 2001000 | TPS 486.379 | ETA 00:11:02
Time 00:54:02 | Step 1683559 / 2001000 | TPS 486.678 | ETA 00:10:52
Time 00:54:12 | Step 1688413 / 2001000 | TPS 485.373 | ETA 00:10:44
Time 00:54:22 | Step 1693277 / 2001000 | TPS 486.322 | ETA 00:10:32
Time 00:54:32 | Step 1698130 / 2001000 | TPS 485.291 | ETA 00:10:24
Time 00:54:42 | Step 1702985 / 2001000 | TPS 485.415 | ETA 00:10:13
Time 00:54:52 | Step 1707800 / 2001000 | TPS 481.43 | ETA 00:10:09
Time 00:55:02 | Step 1712774 / 2001000 | TPS 497.392 | ETA 00:09:39
Time 00:55:12 | Step 1717744 / 2001000 | TPS 496.96 | ETA 00:09:29
Time 00:55:22 | Step 1722721 / 2001000 | TPS 497.697 | ETA 00:09:19
Time 00:55:32 | Step 1727693 / 2001000 | TPS 497.134 | ETA 00:09:09
Time 00:55:42 | Step 1732651 / 2001000 | TPS 495.74 | ETA 00:09:01
Time 00:55:52 | Step 1737602 / 2001000 | TPS 495.095 | ETA 00:08:52
Time 00:56:02 | Step 1742567 / 2001000 | TPS 496.487 | ETA 00:08:40
Time 00:56:12 | Step 1747543 / 2001000 | TPS 497.039 | ETA 00:08:29
Time 00:56:22 | Step 1752542 / 2001000 | TPS 499.83 | ETA 00:08:17
Time 00:56:32 | Step 1757560 / 2001000 | TPS 501.741 | ETA 00:08:05
Time 00:56:42 | Step 1762569 / 2001000 | TPS 500.846 | ETA 00:07:56
Time 00:56:52 | Step 1767574 / 2001000 | TPS 500.473 | ETA 00:07:46
Time 00:57:02 | Step 1772571 / 2001000 | TPS 499.698 | ETA 00:07:37
Time 00:57:12 | Step 1777570 / 2001000 | TPS 499.418 | ETA 00:07:27
Time 00:57:22 | Step 1782575 / 2001000 | TPS 500.414 | ETA 00:07:16
Time 00:57:32 | Step 1787556 / 2001000 | TPS 498.032 | ETA 00:07:08
Time 00:57:42 | Step 1792534 / 2001000 | TPS 497.755 | ETA 00:06:58
Time 00:57:52 | Step 1797511 / 2001000 | TPS 497.617 | ETA 00:06:48
Time 00:58:02 | Step 1802482 / 2001000 | TPS 497.088 | ETA 00:06:39
Time 00:58:12 | Step 1807311 / 2001000 | TPS 482.899 | ETA 00:06:41
Time 00:58:22 | Step 1812266 / 2001000 | TPS 495.484 | ETA 00:06:20
Time 00:58:32 | Step 1817217 / 2001000 | TPS 495.018 | ETA 00:06:11
Time 00:58:42 | Step 1822157 / 2001000 | TPS 493.975 | ETA 00:06:02
Time 00:58:52 | Step 1827088 / 2001000 | TPS 492.88 | ETA 00:05:52
Time 00:59:02 | Step 1832020 / 2001000 | TPS 493.179 | ETA 00:05:42
Time 00:59:12 | Step 1836945 / 2001000 | TPS 492.437 | ETA 00:05:33
Time 00:59:22 | Step 1841855 / 2001000 | TPS 490.952 | ETA 00:05:24
Time 00:59:32 | Step 1846763 / 2001000 | TPS 490.291 | ETA 00:05:14
Time 00:59:42 | Step 1851670 / 2001000 | TPS 490.634 | ETA 00:05:04
Time 00:59:52 | Step 1856577 / 2001000 | TPS 490.682 | ETA 00:04:54
Time 01:00:02 | Step 1861478 / 2001000 | TPS 490.057 | ETA 00:04:44
Time 01:00:12 | Step 1866362 / 2001000 | TPS 488.362 | ETA 00:04:35
Time 01:00:22 | Step 1871258 / 2001000 | TPS 489.524 | ETA 00:04:25
Time 01:00:32 | Step 1876145 / 2001000 | TPS 488.649 | ETA 00:04:15
Time 01:00:42 | Step 1881022 / 2001000 | TPS 487.688 | ETA 00:04:06
Time 01:00:52 | Step 1885898 / 2001000 | TPS 487.597 | ETA 00:03:56
Time 01:01:02 | Step 1890774 / 2001000 | TPS 487.041 | ETA 00:03:46
Time 01:01:12 | Step 1895650 / 2001000 | TPS 487.35 | ETA 00:03:36
Time 01:01:22 | Step 1900531 / 2001000 | TPS 488.043 | ETA 00:03:25
Time 01:01:32 | Step 1905237 / 2001000 | TPS 470.569 | ETA 00:03:23
Time 01:01:42 | Step 1910050 / 2001000 | TPS 481.225 | ETA 00:03:08
Time 01:01:52 | Step 1914846 / 2001000 | TPS 479.59 | ETA 00:02:59
Time 01:02:02 | Step 1919649 / 2001000 | TPS 480.258 | ETA 00:02:49
Time 01:02:12 | Step 1924454 / 2001000 | TPS 480.44 | ETA 00:02:39
Time 01:02:22 | Step 1929252 / 2001000 | TPS 479.757 | ETA 00:02:29
Time 01:02:32 | Step 1934032 / 2001000 | TPS 477.941 | ETA 00:02:20
Time 01:02:42 | Step 1938816 / 2001000 | TPS 478.323 | ETA 00:02:10
Time 01:02:52 | Step 1943608 / 2001000 | TPS 479.149 | ETA 00:01:59
Time 01:03:02 | Step 1948378 / 2001000 | TPS 476.92 | ETA 00:01:50
Time 01:03:12 | Step 1953161 / 2001000 | TPS 478.26 | ETA 00:01:40
Time 01:03:22 | Step 1957941 / 2001000 | TPS 477.919 | ETA 00:01:30
Time 01:03:32 | Step 1962724 / 2001000 | TPS 478.242 | ETA 00:01:20
Time 01:03:42 | Step 1967502 / 2001000 | TPS 477.76 | ETA 00:01:10
Time 01:03:52 | Step 1972284 / 2001000 | TPS 478.159 | ETA 00:01:00
Time 01:04:02 | Step 1977056 / 2001000 | TPS 477.187 | ETA 00:00:50
Time 01:04:12 | Step 1981832 / 2001000 | TPS 477.507 | ETA 00:00:40
Time 01:04:22 | Step 1986613 / 2001000 | TPS 478.033 | ETA 00:00:30
Time 01:04:32 | Step 1991380 / 2001000 | TPS 476.659 | ETA 00:00:20
Time 01:04:42 | Step 1996154 / 2001000 | TPS 477.392 | ETA 00:00:10
Time 01:04:52 | Step 2000928 / 2001000 | TPS 477.39 | ETA 00:00:00
Time 01:04:52 | Step 2001000 / 2001000 | TPS 496.422 | ETA 00:00:00
Average TPS: 514.043
---------
-- Neighborlist stats:
28373 normal updates / 1 forced updates / 0 dangerous updates
n_neigh_min: 0 / n_neigh_max: 218 / n_neigh_avg: 176.833
shortest rebuild period: 38
-- Cell list stats:
Dimension: 15, 15, 17
n_min    : 0 / n_max: 63 / n_avg: 14.1176
** run complete **
benchmark.py:090  |  integrator.set_params(kT=variant.linear_interp(points=[(0, logger.query('temperature')), (2e6, tf)]))
benchmark.py:091  |  run(2e6)
** starting run **
Time 01:05:02 | Step 2005644 / 4001000 | TPS 464.395 | ETA 01:11:36
Time 01:05:12 | Step 2010526 / 4001000 | TPS 488.144 | ETA 01:07:57
Time 01:05:22 | Step 2015399 / 4001000 | TPS 487.22 | ETA 01:07:55
Time 01:05:32 | Step 2020261 / 4001000 | TPS 486.142 | ETA 01:07:54
Time 01:05:42 | Step 2025115 / 4001000 | TPS 485.382 | ETA 01:07:50
Time 01:05:52 | Step 2029977 / 4001000 | TPS 486.116 | ETA 01:07:34
Time 01:06:02 | Step 2034831 / 4001000 | TPS 485.339 | ETA 01:07:31
Time 01:06:12 | Step 2039671 / 4001000 | TPS 483.993 | ETA 01:07:32
Time 01:06:22 | Step 2044505 / 4001000 | TPS 483.069 | ETA 01:07:30
Time 01:06:32 | Step 2049310 / 4001000 | TPS 480.224 | ETA 01:07:44
Time 01:06:42 | Step 2054112 / 4001000 | TPS 480.182 | ETA 01:07:34
Time 01:06:52 | Step 2058933 / 4001000 | TPS 482.079 | ETA 01:07:08
Time 01:07:02 | Step 2063764 / 4001000 | TPS 483.047 | ETA 01:06:50
Time 01:07:12 | Step 2068581 / 4001000 | TPS 481.65 | ETA 01:06:52
Time 01:07:22 | Step 2073396 / 4001000 | TPS 481.434 | ETA 01:06:43
Time 01:07:32 | Step 2078209 / 4001000 | TPS 481.037 | ETA 01:06:37
Time 01:07:42 | Step 2083016 / 4001000 | TPS 480.647 | ETA 01:06:30
Time 01:07:52 | Step 2087816 / 4001000 | TPS 479.736 | ETA 01:06:27
Time 01:08:02 | Step 2092622 / 4001000 | TPS 480.53 | ETA 01:06:11
Time 01:08:12 | Step 2097422 / 4001000 | TPS 479.563 | ETA 01:06:09
Time 01:08:22 | Step 2102213 / 4001000 | TPS 479.086 | ETA 01:06:03
Time 01:08:32 | Step 2106864 / 4001000 | TPS 465.084 | ETA 01:07:52
Time 01:08:42 | Step 2111646 / 4001000 | TPS 478.19 | ETA 01:05:51
Time 01:08:52 | Step 2116423 / 4001000 | TPS 477.627 | ETA 01:05:45
Time 01:09:02 | Step 2121188 / 4001000 | TPS 476.416 | ETA 01:05:45
Time 01:09:12 | Step 2125954 / 4001000 | TPS 476.553 | ETA 01:05:34
Time 01:09:22 | Step 2130720 / 4001000 | TPS 476.521 | ETA 01:05:24
Time 01:09:32 | Step 2135476 / 4001000 | TPS 475.597 | ETA 01:05:22
Time 01:09:42 | Step 2140224 / 4001000 | TPS 474.318 | ETA 01:05:23
Time 01:09:52 | Step 2144830 / 4001000 | TPS 460.598 | ETA 01:07:09
Time 01:10:02 | Step 2149409 / 4001000 | TPS 457.844 | ETA 01:07:24
Time 01:10:12 | Step 2154202 / 4001000 | TPS 479.262 | ETA 01:04:13
Time 01:10:22 | Step 2159033 / 4001000 | TPS 483.074 | ETA 01:03:33
Time 01:10:32 | Step 2163853 / 4001000 | TPS 481.986 | ETA 01:03:31
Time 01:10:42 | Step 2168673 / 4001000 | TPS 481.997 | ETA 01:03:21
Time 01:10:52 | Step 2173491 / 4001000 | TPS 481.725 | ETA 01:03:13
Time 01:11:02 | Step 2178301 / 4001000 | TPS 480.972 | ETA 01:03:09
Time 01:11:12 | Step 2183100 / 4001000 | TPS 479.869 | ETA 01:03:08
Time 01:11:22 | Step 2187902 / 4001000 | TPS 480.165 | ETA 01:02:55
Time 01:11:32 | Step 2192701 / 4001000 | TPS 479.533 | ETA 01:02:50
Time 01:11:42 | Step 2197501 / 4001000 | TPS 479.928 | ETA 01:02:37
Time 01:11:52 | Step 2202281 / 4001000 | TPS 477.931 | ETA 01:02:43
Time 01:12:02 | Step 2206945 / 4001000 | TPS 466.377 | ETA 01:04:06
Time 01:12:12 | Step 2211848 / 4001000 | TPS 490.27 | ETA 01:00:49
Time 01:12:22 | Step 2216723 / 4001000 | TPS 487.483 | ETA 01:01:00
Time 01:12:32 | Step 2221609 / 4001000 | TPS 488.555 | ETA 01:00:42
Time 01:12:42 | Step 2226481 / 4001000 | TPS 487.197 | ETA 01:00:42
Time 01:12:52 | Step 2231352 / 4001000 | TPS 486.903 | ETA 01:00:34
Time 01:13:02 | Step 2236209 / 4001000 | TPS 485.662 | ETA 01:00:33
Time 01:13:12 | Step 2241069 / 4001000 | TPS 485.922 | ETA 01:00:21
Time 01:13:22 | Step 2245923 / 4001000 | TPS 485.328 | ETA 01:00:16
Time 01:13:32 | Step 2250772 / 4001000 | TPS 484.889 | ETA 01:00:09
Time 01:13:42 | Step 2255623 / 4001000 | TPS 485.033 | ETA 00:59:58
Time 01:13:52 | Step 2260462 / 4001000 | TPS 483.869 | ETA 00:59:57
Time 01:14:02 | Step 2265289 / 4001000 | TPS 482.664 | ETA 00:59:56
Time 01:14:12 | Step 2270125 / 4001000 | TPS 483.517 | ETA 00:59:39
Time 01:14:22 | Step 2274956 / 4001000 | TPS 483.038 | ETA 00:59:33
Time 01:14:32 | Step 2279782 / 4001000 | TPS 482.548 | ETA 00:59:26
Time 01:14:42 | Step 2284609 / 4001000 | TPS 482.629 | ETA 00:59:16
Time 01:14:52 | Step 2289427 / 4001000 | TPS 481.786 | ETA 00:59:12
Time 01:15:02 | Step 2294237 / 4001000 | TPS 480.995 | ETA 00:59:08
Time 01:15:12 | Step 2299043 / 4001000 | TPS 480.526 | ETA 00:59:01
Time 01:15:22 | Step 2303840 / 4001000 | TPS 479.652 | ETA 00:58:58
Time 01:15:32 | Step 2308471 / 4001000 | TPS 463.014 | ETA 01:00:55
Time 01:15:42 | Step 2313264 / 4001000 | TPS 479.247 | ETA 00:58:41
Time 01:15:52 | Step 2318051 / 4001000 | TPS 478.645 | ETA 00:58:36
Time 01:16:02 | Step 2322835 / 4001000 | TPS 478.333 | ETA 00:58:28
Time 01:16:12 | Step 2327621 / 4001000 | TPS 478.537 | ETA 00:58:16
Time 01:16:22 | Step 2332404 / 4001000 | TPS 478.272 | ETA 00:58:08
Time 01:16:32 | Step 2337177 / 4001000 | TPS 477.242 | ETA 00:58:06
Time 01:16:42 | Step 2341955 / 4001000 | TPS 477.763 | ETA 00:57:52
Time 01:16:52 | Step 2346733 / 4001000 | TPS 477.786 | ETA 00:57:42
Time 01:17:02 | Step 2351498 / 4001000 | TPS 476.35 | ETA 00:57:42
Time 01:17:12 | Step 2356258 / 4001000 | TPS 475.962 | ETA 00:57:35
Time 01:17:22 | Step 2361030 / 4001000 | TPS 477.195 | ETA 00:57:16
Time 01:17:32 | Step 2365796 / 4001000 | TPS 476.512 | ETA 00:57:11
Time 01:17:42 | Step 2370558 / 4001000 | TPS 476.173 | ETA 00:57:04
Time 01:17:52 | Step 2375318 / 4001000 | TPS 475.923 | ETA 00:56:55
Time 01:18:02 | Step 2380078 / 4001000 | TPS 475.496 | ETA 00:56:48
Time 01:18:12 | Step 2384833 / 4001000 | TPS 475.474 | ETA 00:56:39
Time 01:18:22 | Step 2389582 / 4001000 | TPS 474.829 | ETA 00:56:33
Time 01:18:32 | Step 2394328 / 4001000 | TPS 474.527 | ETA 00:56:25
Time 01:18:42 | Step 2399080 / 4001000 | TPS 475.162 | ETA 00:56:11
Time 01:18:52 | Step 2403823 / 4001000 | TPS 474.246 | ETA 00:56:07
Time 01:19:02 | Step 2408386 / 4001000 | TPS 456.246 | ETA 00:58:10
Time 01:19:12 | Step 2413121 / 4001000 | TPS 473.451 | ETA 00:55:53
Time 01:19:22 | Step 2417859 / 4001000 | TPS 473.76 | ETA 00:55:41
Time 01:19:32 | Step 2422586 / 4001000 | TPS 472.696 | ETA 00:55:39
Time 01:19:42 | Step 2427310 / 4001000 | TPS 472.393 | ETA 00:55:31
Time 01:19:52 | Step 2432033 / 4001000 | TPS 472.081 | ETA 00:55:23
Time 01:20:02 | Step 2436753 / 4001000 | TPS 471.909 | ETA 00:55:14
Time 01:20:12 | Step 2441469 / 4001000 | TPS 471.594 | ETA 00:55:06
Time 01:20:22 | Step 2446182 / 4001000 | TPS 471.296 | ETA 00:54:59
Time 01:20:32 | Step 2450898 / 4001000 | TPS 471.154 | ETA 00:54:50
Time 01:20:42 | Step 2455615 / 4001000 | TPS 471.673 | ETA 00:54:36
Time 01:20:52 | Step 2460323 / 4001000 | TPS 470.73 | ETA 00:54:32
Time 01:21:02 | Step 2465029 / 4001000 | TPS 470.536 | ETA 00:54:24
Time 01:21:12 | Step 2469736 / 4001000 | TPS 470.671 | ETA 00:54:13
Time 01:21:22 | Step 2474448 / 4001000 | TPS 471.187 | ETA 00:53:59
Time 01:21:32 | Step 2479148 / 4001000 | TPS 469.991 | ETA 00:53:58
Time 01:21:42 | Step 2483855 / 4001000 | TPS 470.688 | ETA 00:53:43
Time 01:21:52 | Step 2488558 / 4001000 | TPS 470.24 | ETA 00:53:36
Time 01:22:02 | Step 2493262 / 4001000 | TPS 470.344 | ETA 00:53:25
Time 01:22:12 | Step 2497958 / 4001000 | TPS 469.536 | ETA 00:53:21
Time 01:22:22 | Step 2502656 / 4001000 | TPS 469.74 | ETA 00:53:09
Time 01:22:32 | Step 2507167 / 4001000 | TPS 450.583 | ETA 00:55:15
Time 01:22:42 | Step 2511851 / 4001000 | TPS 468.313 | ETA 00:52:59
Time 01:22:52 | Step 2516538 / 4001000 | TPS 468.613 | ETA 00:52:47
Time 01:23:02 | Step 2521224 / 4001000 | TPS 468.211 | ETA 00:52:40
Time 01:23:12 | Step 2525901 / 4001000 | TPS 467.694 | ETA 00:52:33
Time 01:23:22 | Step 2530586 / 4001000 | TPS 468.41 | ETA 00:52:19
Time 01:23:32 | Step 2535258 / 4001000 | TPS 466.979 | ETA 00:52:18
Time 01:23:42 | Step 2539933 / 4001000 | TPS 467.483 | ETA 00:52:05
Time 01:23:52 | Step 2544601 / 4001000 | TPS 466.797 | ETA 00:51:59
Time 01:24:02 | Step 2549264 / 4001000 | TPS 466.282 | ETA 00:51:53
Time 01:24:12 | Step 2553923 / 4001000 | TPS 465.846 | ETA 00:51:46
Time 01:24:22 | Step 2558582 / 4001000 | TPS 465.835 | ETA 00:51:36
Time 01:24:32 | Step 2563242 / 4001000 | TPS 465.983 | ETA 00:51:25
Time 01:24:42 | Step 2567889 / 4001000 | TPS 464.687 | ETA 00:51:24
Time 01:24:52 | Step 2572534 / 4001000 | TPS 464.446 | ETA 00:51:15
Time 01:25:02 | Step 2577186 / 4001000 | TPS 465.16 | ETA 00:51:00
Time 01:25:12 | Step 2581829 / 4001000 | TPS 464.241 | ETA 00:50:56
Time 01:25:22 | Step 2586467 / 4001000 | TPS 463.787 | ETA 00:50:49
Time 01:25:32 | Step 2591104 / 4001000 | TPS 463.646 | ETA 00:50:40
Time 01:25:42 | Step 2595738 / 4001000 | TPS 463.35 | ETA 00:50:32
Time 01:25:52 | Step 2600364 / 4001000 | TPS 462.584 | ETA 00:50:27
Time 01:26:02 | Step 2604977 / 4001000 | TPS 461.252 | ETA 00:50:26
Time 01:26:12 | Step 2609420 / 4001000 | TPS 444.276 | ETA 00:52:12
Time 01:26:22 | Step 2614037 / 4001000 | TPS 461.682 | ETA 00:50:04
Time 01:26:32 | Step 2618649 / 4001000 | TPS 461.166 | ETA 00:49:57
Time 01:26:42 | Step 2623272 / 4001000 | TPS 462.279 | ETA 00:49:40
Time 01:26:52 | Step 2627889 / 4001000 | TPS 461.682 | ETA 00:49:34
Time 01:27:02 | Step 2632487 / 4001000 | TPS 459.731 | ETA 00:49:36
Time 01:27:12 | Step 2637093 / 4001000 | TPS 460.555 | ETA 00:49:21
Time 01:27:22 | Step 2641694 / 4001000 | TPS 460.091 | ETA 00:49:14
Time 01:27:32 | Step 2646295 / 4001000 | TPS 460.049 | ETA 00:49:04
Time 01:27:42 | Step 2650898 / 4001000 | TPS 460.247 | ETA 00:48:53
Time 01:27:52 | Step 2655493 / 4001000 | TPS 459.499 | ETA 00:48:48
Time 01:28:02 | Step 2660085 / 4001000 | TPS 458.73 | ETA 00:48:43
Time 01:28:12 | Step 2664675 / 4001000 | TPS 458.975 | ETA 00:48:31
Time 01:28:22 | Step 2669258 / 4001000 | TPS 458.16 | ETA 00:48:26
Time 01:28:32 | Step 2673840 / 4001000 | TPS 458.185 | ETA 00:48:16
Time 01:28:42 | Step 2678426 / 4001000 | TPS 458.576 | ETA 00:48:04
Time 01:28:52 | Step 2682827 / 4001000 | TPS 440.059 | ETA 00:49:55
Time 01:29:02 | Step 2687180 / 4001000 | TPS 434.821 | ETA 00:50:21
Time 01:29:12 | Step 2691532 / 4001000 | TPS 435.178 | ETA 00:50:09
Time 01:29:22 | Step 2696096 / 4001000 | TPS 456.378 | ETA 00:47:39
Time 01:29:32 | Step 2700667 / 4001000 | TPS 457.018 | ETA 00:47:25
Time 01:29:42 | Step 2705236 / 4001000 | TPS 456.869 | ETA 00:47:16
Time 01:29:52 | Step 2709613 / 4001000 | TPS 437.693 | ETA 00:49:10
Time 01:30:02 | Step 2714179 / 4001000 | TPS 456.249 | ETA 00:47:00
Time 01:30:12 | Step 2718738 / 4001000 | TPS 455.845 | ETA 00:46:52
Time 01:30:22 | Step 2723298 / 4001000 | TPS 455.93 | ETA 00:46:42
Time 01:30:32 | Step 2727846 / 4001000 | TPS 454.721 | ETA 00:46:39
Time 01:30:42 | Step 2732392 / 4001000 | TPS 454.565 | ETA 00:46:30
Time 01:30:52 | Step 2736937 / 4001000 | TPS 454.428 | ETA 00:46:21
Time 01:31:02 | Step 2741485 / 4001000 | TPS 454.758 | ETA 00:46:09
Time 01:31:12 | Step 2746036 / 4001000 | TPS 455.09 | ETA 00:45:57
Time 01:31:22 | Step 2750576 / 4001000 | TPS 453.575 | ETA 00:45:56
Time 01:31:32 | Step 2755123 / 4001000 | TPS 454.662 | ETA 00:45:40
Time 01:31:42 | Step 2759663 / 4001000 | TPS 453.959 | ETA 00:45:34
Time 01:31:52 | Step 2764199 / 4001000 | TPS 453.025 | ETA 00:45:30
Time 01:32:02 | Step 2768740 / 4001000 | TPS 454.031 | ETA 00:45:14
Time 01:32:12 | Step 2773275 / 4001000 | TPS 453.415 | ETA 00:45:07
Time 01:32:22 | Step 2777805 / 4001000 | TPS 452.931 | ETA 00:45:00
Time 01:32:32 | Step 2782340 / 4001000 | TPS 453.462 | ETA 00:44:47
Time 01:32:42 | Step 2786868 / 4001000 | TPS 452.726 | ETA 00:44:41
Time 01:32:52 | Step 2791398 / 4001000 | TPS 452.934 | ETA 00:44:30
Time 01:33:02 | Step 2795926 / 4001000 | TPS 452.751 | ETA 00:44:21
Time 01:33:12 | Step 2800453 / 4001000 | TPS 452.626 | ETA 00:44:12
Time 01:33:22 | Step 2804975 / 4001000 | TPS 452.184 | ETA 00:44:04
Time 01:33:32 | Step 2809317 / 4001000 | TPS 434.128 | ETA 00:45:45
Time 01:33:42 | Step 2813838 / 4001000 | TPS 452.099 | ETA 00:43:45
Time 01:33:52 | Step 2818358 / 4001000 | TPS 451.959 | ETA 00:43:36
Time 01:34:02 | Step 2822879 / 4001000 | TPS 452.038 | ETA 00:43:26
Time 01:34:12 | Step 2827393 / 4001000 | TPS 451.324 | ETA 00:43:20
Time 01:34:22 | Step 2831909 / 4001000 | TPS 451.548 | ETA 00:43:09
Time 01:34:32 | Step 2836417 / 4001000 | TPS 450.729 | ETA 00:43:03
Time 01:34:42 | Step 2840922 / 4001000 | TPS 450.476 | ETA 00:42:55
Time 01:34:52 | Step 2845424 / 4001000 | TPS 450.141 | ETA 00:42:47
Time 01:35:02 | Step 2849922 / 4001000 | TPS 449.69 | ETA 00:42:39
Time 01:35:12 | Step 2854417 / 4001000 | TPS 449.428 | ETA 00:42:31
Time 01:35:22 | Step 2858906 / 4001000 | TPS 448.856 | ETA 00:42:24
Time 01:35:32 | Step 2863398 / 4001000 | TPS 448.795 | ETA 00:42:14
Time 01:35:42 | Step 2867880 / 4001000 | TPS 448.172 | ETA 00:42:08
Time 01:35:52 | Step 2872354 / 4001000 | TPS 447.359 | ETA 00:42:02
Time 01:36:02 | Step 2876823 / 4001000 | TPS 446.85 | ETA 00:41:55
Time 01:36:12 | Step 2881280 / 4001000 | TPS 445.626 | ETA 00:41:52
Time 01:36:22 | Step 2885729 / 4001000 | TPS 444.891 | ETA 00:41:46
Time 01:36:32 | Step 2890173 / 4001000 | TPS 444.355 | ETA 00:41:39
Time 01:36:42 | Step 2894609 / 4001000 | TPS 443.551 | ETA 00:41:34
Time 01:36:52 | Step 2899042 / 4001000 | TPS 443.24 | ETA 00:41:26
Time 01:37:02 | Step 2903465 / 4001000 | TPS 442.278 | ETA 00:41:21
Time 01:37:12 | Step 2907690 / 4001000 | TPS 422.495 | ETA 00:43:07
Time 01:37:22 | Step 2912100 / 4001000 | TPS 440.675 | ETA 00:41:10
Time 01:37:32 | Step 2916509 / 4001000 | TPS 440.817 | ETA 00:41:00
Time 01:37:42 | Step 2920906 / 4001000 | TPS 439.126 | ETA 00:40:59
Time 01:37:52 | Step 2925298 / 4001000 | TPS 439.12 | ETA 00:40:49
Time 01:38:02 | Step 2929676 / 4001000 | TPS 437.775 | ETA 00:40:47
Time 01:38:12 | Step 2934046 / 4001000 | TPS 436.923 | ETA 00:40:41
Time 01:38:22 | Step 2938418 / 4001000 | TPS 437.121 | ETA 00:40:30
Time 01:38:32 | Step 2942779 / 4001000 | TPS 436.035 | ETA 00:40:26
Time 01:38:42 | Step 2947141 / 4001000 | TPS 435.688 | ETA 00:40:18
Time 01:38:52 | Step 2951500 / 4001000 | TPS 435.875 | ETA 00:40:07
Time 01:39:02 | Step 2955853 / 4001000 | TPS 435.135 | ETA 00:40:01
Time 01:39:12 | Step 2960205 / 4001000 | TPS 435.182 | ETA 00:39:51
Time 01:39:22 | Step 2964558 / 4001000 | TPS 435.273 | ETA 00:39:41
Time 01:39:32 | Step 2968905 / 4001000 | TPS 434.631 | ETA 00:39:34
Time 01:39:42 | Step 2973248 / 4001000 | TPS 434.292 | ETA 00:39:26
Time 01:39:52 | Step 2977594 / 4001000 | TPS 434.518 | ETA 00:39:15
Time 01:40:02 | Step 2981937 / 4001000 | TPS 434.296 | ETA 00:39:06
Time 01:40:12 | Step 2986277 / 4001000 | TPS 433.983 | ETA 00:38:58
Time 01:40:22 | Step 2990615 / 4001000 | TPS 433.783 | ETA 00:38:49
Time 01:40:32 | Step 2994959 / 4001000 | TPS 434.316 | ETA 00:38:36
Time 01:40:42 | Step 2999295 / 4001000 | TPS 433.582 | ETA 00:38:30
Time 01:40:52 | Step 3003627 / 4001000 | TPS 433.194 | ETA 00:38:22
Time 01:41:02 | Step 3007768 / 4001000 | TPS 414.016 | ETA 00:39:59
Time 01:41:12 | Step 3012100 / 4001000 | TPS 433.187 | ETA 00:38:02
Time 01:41:22 | Step 3016427 / 4001000 | TPS 432.656 | ETA 00:37:55
Time 01:41:32 | Step 3020752 / 4001000 | TPS 432.477 | ETA 00:37:46
Time 01:41:42 | Step 3025077 / 4001000 | TPS 432.43 | ETA 00:37:36
Time 01:41:52 | Step 3029411 / 4001000 | TPS 433.311 | ETA 00:37:22
Time 01:42:02 | Step 3033733 / 4001000 | TPS 432.16 | ETA 00:37:18
Time 01:42:12 | Step 3038064 / 4001000 | TPS 433.075 | ETA 00:37:03
Time 01:42:22 | Step 3042393 / 4001000 | TPS 432.834 | ETA 00:36:54
Time 01:42:32 | Step 3046720 / 4001000 | TPS 432.695 | ETA 00:36:45
Time 01:42:42 | Step 3051047 / 4001000 | TPS 432.63 | ETA 00:36:35
Time 01:42:52 | Step 3055372 / 4001000 | TPS 432.493 | ETA 00:36:26
Time 01:43:02 | Step 3059700 / 4001000 | TPS 432.748 | ETA 00:36:15
Time 01:43:12 | Step 3064020 / 4001000 | TPS 431.953 | ETA 00:36:09
Time 01:43:22 | Step 3068340 / 4001000 | TPS 431.974 | ETA 00:35:59
Time 01:43:32 | Step 3072663 / 4001000 | TPS 432.276 | ETA 00:35:47
Time 01:43:42 | Step 3076985 / 4001000 | TPS 432.168 | ETA 00:35:38
Time 01:43:52 | Step 3081311 / 4001000 | TPS 432.547 | ETA 00:35:26
Time 01:44:02 | Step 3085634 / 4001000 | TPS 432.015 | ETA 00:35:18
Time 01:44:12 | Step 3089960 / 4001000 | TPS 432.531 | ETA 00:35:06
Time 01:44:22 | Step 3094284 / 4001000 | TPS 432.37 | ETA 00:34:57
Time 01:44:32 | Step 3098606 / 4001000 | TPS 432.142 | ETA 00:34:48
Time 01:44:42 | Step 3102910 / 4001000 | TPS 430.314 | ETA 00:34:47
Time 01:44:52 | Step 3107052 / 4001000 | TPS 414.192 | ETA 00:35:58
Time 01:45:02 | Step 3111373 / 4001000 | TPS 432.07 | ETA 00:34:18
Time 01:45:12 | Step 3115693 / 4001000 | TPS 431.946 | ETA 00:34:09
Time 01:45:22 | Step 3120022 / 4001000 | TPS 432.824 | ETA 00:33:55
Time 01:45:32 | Step 3124338 / 4001000 | TPS 431.567 | ETA 00:33:51
Time 01:45:42 | Step 3128658 / 4001000 | TPS 431.974 | ETA 00:33:39
Time 01:45:52 | Step 3132976 / 4001000 | TPS 431.767 | ETA 00:33:30
Time 01:46:02 | Step 3137294 / 4001000 | TPS 431.71 | ETA 00:33:20
Time 01:46:12 | Step 3141616 / 4001000 | TPS 432.153 | ETA 00:33:08
Time 01:46:22 | Step 3145940 / 4001000 | TPS 432.322 | ETA 00:32:57
Time 01:46:32 | Step 3150260 / 4001000 | TPS 431.539 | ETA 00:32:51
Time 01:46:42 | Step 3154585 / 4001000 | TPS 432.034 | ETA 00:32:39
Time 01:46:52 | Step 3158910 / 4001000 | TPS 432.441 | ETA 00:32:27
Time 01:47:02 | Step 3163234 / 4001000 | TPS 432.375 | ETA 00:32:17
Time 01:47:12 | Step 3167552 / 4001000 | TPS 431.79 | ETA 00:32:10
Time 01:47:22 | Step 3171869 / 4001000 | TPS 431.626 | ETA 00:32:00
Time 01:47:32 | Step 3176190 / 4001000 | TPS 432.01 | ETA 00:31:49
Time 01:47:42 | Step 3180503 / 4001000 | TPS 431.293 | ETA 00:31:42
Time 01:47:52 | Step 3184822 / 4001000 | TPS 431.757 | ETA 00:31:30
Time 01:48:02 | Step 3189144 / 4001000 | TPS 432.158 | ETA 00:31:18
Time 01:48:12 | Step 3193460 / 4001000 | TPS 431.563 | ETA 00:31:11
Time 01:48:22 | Step 3197780 / 4001000 | TPS 431.977 | ETA 00:30:59
Time 01:48:32 | Step 3202098 / 4001000 | TPS 431.72 | ETA 00:30:50
Time 01:48:42 | Step 3206418 / 4001000 | TPS 431.651 | ETA 00:30:40
Time 01:48:52 | Step 3210506 / 4001000 | TPS 408.799 | ETA 00:32:13
Time 01:49:02 | Step 3214769 / 4001000 | TPS 426.294 | ETA 00:30:44
Time 01:49:12 | Step 3219035 / 4001000 | TPS 426.57 | ETA 00:30:33
Time 01:49:22 | Step 3223301 / 4001000 | TPS 426.562 | ETA 00:30:23
Time 01:49:32 | Step 3227567 / 4001000 | TPS 426.52 | ETA 00:30:13
Time 01:49:42 | Step 3231826 / 4001000 | TPS 425.884 | ETA 00:30:06
Time 01:49:52 | Step 3236091 / 4001000 | TPS 426.408 | ETA 00:29:53
Time 01:50:02 | Step 3240355 / 4001000 | TPS 426.349 | ETA 00:29:44
Time 01:50:12 | Step 3244624 / 4001000 | TPS 426.892 | ETA 00:29:31
Time 01:50:22 | Step 3248886 / 4001000 | TPS 426.149 | ETA 00:29:24
Time 01:50:32 | Step 3253147 / 4001000 | TPS 426.095 | ETA 00:29:15
Time 01:50:42 | Step 3257409 / 4001000 | TPS 426.138 | ETA 00:29:04
Time 01:50:52 | Step 3261668 / 4001000 | TPS 425.787 | ETA 00:28:56
Time 01:51:02 | Step 3265937 / 4001000 | TPS 426.846 | ETA 00:28:42
Time 01:51:12 | Step 3270194 / 4001000 | TPS 425.613 | ETA 00:28:37
Time 01:51:22 | Step 3274460 / 4001000 | TPS 426.559 | ETA 00:28:23
Time 01:51:32 | Step 3278726 / 4001000 | TPS 426.555 | ETA 00:28:13
Time 01:51:42 | Step 3282990 / 4001000 | TPS 426.364 | ETA 00:28:04
Time 01:51:52 | Step 3287253 / 4001000 | TPS 426.244 | ETA 00:27:54
Time 01:52:02 | Step 3291514 / 4001000 | TPS 426.087 | ETA 00:27:45
Time 01:52:12 | Step 3295781 / 4001000 | TPS 426.666 | ETA 00:27:32
Time 01:52:22 | Step 3300046 / 4001000 | TPS 426.435 | ETA 00:27:23
Time 01:52:32 | Step 3304309 / 4001000 | TPS 426.292 | ETA 00:27:14
Time 01:52:42 | Step 3308394 / 4001000 | TPS 408.462 | ETA 00:28:15
Time 01:52:52 | Step 3312688 / 4001000 | TPS 429.381 | ETA 00:26:43
Time 01:53:02 | Step 3317003 / 4001000 | TPS 431.46 | ETA 00:26:25
Time 01:53:12 | Step 3321323 / 4001000 | TPS 431.956 | ETA 00:26:13
Time 01:53:22 | Step 3325641 / 4001000 | TPS 431.773 | ETA 00:26:04
Time 01:53:32 | Step 3329958 / 4001000 | TPS 431.697 | ETA 00:25:54
Time 01:53:42 | Step 3334275 / 4001000 | TPS 431.662 | ETA 00:25:44
Time 01:53:52 | Step 3338591 / 4001000 | TPS 431.515 | ETA 00:25:35
Time 01:54:02 | Step 3342907 / 4001000 | TPS 431.516 | ETA 00:25:25
Time 01:54:12 | Step 3347220 / 4001000 | TPS 431.264 | ETA 00:25:15
Time 01:54:22 | Step 3351537 / 4001000 | TPS 431.692 | ETA 00:25:04
Time 01:54:32 | Step 3355853 / 4001000 | TPS 431.597 | ETA 00:24:54
Time 01:54:42 | Step 3360169 / 4001000 | TPS 431.03 | ETA 00:24:46
Time 01:54:52 | Step 3364494 / 4001000 | TPS 432.457 | ETA 00:24:31
Time 01:55:03 | Step 3368808 / 4001000 | TPS 431.331 | ETA 00:24:25
Time 01:55:13 | Step 3373126 / 4001000 | TPS 431.754 | ETA 00:24:14
Time 01:55:23 | Step 3377443 / 4001000 | TPS 431.632 | ETA 00:24:04
Time 01:55:33 | Step 3381760 / 4001000 | TPS 431.611 | ETA 00:23:54
Time 01:55:43 | Step 3386074 / 4001000 | TPS 431.379 | ETA 00:23:45
Time 01:55:53 | Step 3390393 / 4001000 | TPS 431.884 | ETA 00:23:33
Time 01:56:03 | Step 3394538 / 4001000 | TPS 414.485 | ETA 00:24:23
Time 01:56:13 | Step 3398717 / 4001000 | TPS 417.834 | ETA 00:24:01
Time 01:56:23 | Step 3402890 / 4001000 | TPS 417.261 | ETA 00:23:53
Time 01:56:33 | Step 3407071 / 4001000 | TPS 418.009 | ETA 00:23:40
Time 01:56:43 | Step 3411183 / 4001000 | TPS 411.168 | ETA 00:23:54
Time 01:56:53 | Step 3415502 / 4001000 | TPS 431.847 | ETA 00:22:35
Time 01:57:03 | Step 3419815 / 4001000 | TPS 431.216 | ETA 00:22:27
Time 01:57:13 | Step 3424136 / 4001000 | TPS 432.088 | ETA 00:22:15
Time 01:57:23 | Step 3428457 / 4001000 | TPS 432.093 | ETA 00:22:05
Time 01:57:33 | Step 3432772 / 4001000 | TPS 431.446 | ETA 00:21:57
Time 01:57:43 | Step 3437091 / 4001000 | TPS 431.816 | ETA 00:21:45
Time 01:57:53 | Step 3441408 / 4001000 | TPS 431.688 | ETA 00:21:36
Time 01:58:03 | Step 3445724 / 4001000 | TPS 431.547 | ETA 00:21:26
Time 01:58:13 | Step 3450040 / 4001000 | TPS 431.529 | ETA 00:21:16
Time 01:58:23 | Step 3454359 / 4001000 | TPS 431.825 | ETA 00:21:05
Time 01:58:33 | Step 3458682 / 4001000 | TPS 431.724 | ETA 00:20:56
Time 01:58:43 | Step 3462999 / 4001000 | TPS 431.674 | ETA 00:20:46
Time 01:58:53 | Step 3467310 / 4001000 | TPS 431.073 | ETA 00:20:38
Time 01:59:03 | Step 3471617 / 4001000 | TPS 430.667 | ETA 00:20:29
Time 01:59:13 | Step 3475933 / 4001000 | TPS 431.555 | ETA 00:20:16
Time 01:59:23 | Step 3480243 / 4001000 | TPS 430.983 | ETA 00:20:08
Time 01:59:33 | Step 3484563 / 4001000 | TPS 431.987 | ETA 00:19:55
Time 01:59:43 | Step 3488883 / 4001000 | TPS 431.956 | ETA 00:19:45
Time 01:59:53 | Step 3493196 / 4001000 | TPS 431.226 | ETA 00:19:37
Time 02:00:03 | Step 3497508 / 4001000 | TPS 431.145 | ETA 00:19:27
Time 02:00:13 | Step 3501824 / 4001000 | TPS 431.553 | ETA 00:19:16
Time 02:00:23 | Step 3506143 / 4001000 | TPS 431.835 | ETA 00:19:05
Time 02:00:33 | Step 3510269 / 4001000 | TPS 412.573 | ETA 00:19:49
Time 02:00:43 | Step 3514583 / 4001000 | TPS 431.35 | ETA 00:18:47
Time 02:00:53 | Step 3518901 / 4001000 | TPS 431.716 | ETA 00:18:36
Time 02:01:03 | Step 3523223 / 4001000 | TPS 432.116 | ETA 00:18:25
Time 02:01:13 | Step 3527537 / 4001000 | TPS 431.379 | ETA 00:18:17
Time 02:01:23 | Step 3531855 / 4001000 | TPS 431.784 | ETA 00:18:06
Time 02:01:33 | Step 3536173 / 4001000 | TPS 431.74 | ETA 00:17:56
Time 02:01:43 | Step 3540496 / 4001000 | TPS 432.205 | ETA 00:17:45
Time 02:01:53 | Step 3544818 / 4001000 | TPS 432.198 | ETA 00:17:35
Time 02:02:03 | Step 3549134 / 4001000 | TPS 431.545 | ETA 00:17:27
Time 02:02:13 | Step 3553453 / 4001000 | TPS 431.867 | ETA 00:17:16
Time 02:02:23 | Step 3557776 / 4001000 | TPS 432.247 | ETA 00:17:05
Time 02:02:33 | Step 3562093 / 4001000 | TPS 431.663 | ETA 00:16:56
Time 02:02:43 | Step 3566416 / 4001000 | TPS 432.23 | ETA 00:16:45
Time 02:02:53 | Step 3570732 / 4001000 | TPS 431.505 | ETA 00:16:37
Time 02:03:03 | Step 3575052 / 4001000 | TPS 431.983 | ETA 00:16:26
Time 02:03:13 | Step 3579371 / 4001000 | TPS 431.848 | ETA 00:16:16
Time 02:03:23 | Step 3583694 / 4001000 | TPS 432.268 | ETA 00:16:05
Time 02:03:33 | Step 3587993 / 4001000 | TPS 429.856 | ETA 00:16:00
Time 02:03:43 | Step 3592317 / 4001000 | TPS 432.33 | ETA 00:15:45
Time 02:03:53 | Step 3596635 / 4001000 | TPS 431.733 | ETA 00:15:36
Time 02:04:03 | Step 3600956 / 4001000 | TPS 432.086 | ETA 00:15:25
Time 02:04:13 | Step 3605280 / 4001000 | TPS 432.376 | ETA 00:15:15
Time 02:04:23 | Step 3609406 / 4001000 | TPS 412.569 | ETA 00:15:49
Time 02:04:33 | Step 3613718 / 4001000 | TPS 431.199 | ETA 00:14:58
Time 02:04:43 | Step 3618040 / 4001000 | TPS 432.177 | ETA 00:14:46
Time 02:04:53 | Step 3622367 / 4001000 | TPS 432.681 | ETA 00:14:35
Time 02:05:03 | Step 3626688 / 4001000 | TPS 432.081 | ETA 00:14:26
Time 02:05:13 | Step 3631014 / 4001000 | TPS 432.554 | ETA 00:14:15
Time 02:05:23 | Step 3635340 / 4001000 | TPS 432.505 | ETA 00:14:05
Time 02:05:33 | Step 3639665 / 4001000 | TPS 432.489 | ETA 00:13:55
Time 02:05:43 | Step 3643995 / 4001000 | TPS 432.916 | ETA 00:13:44
Time 02:05:53 | Step 3648324 / 4001000 | TPS 432.823 | ETA 00:13:34
Time 02:06:03 | Step 3652658 / 4001000 | TPS 433.371 | ETA 00:13:23
Time 02:06:13 | Step 3656990 / 4001000 | TPS 433.181 | ETA 00:13:14
Time 02:06:23 | Step 3661315 / 4001000 | TPS 432.492 | ETA 00:13:05
Time 02:06:33 | Step 3665639 / 4001000 | TPS 432.364 | ETA 00:12:55
Time 02:06:43 | Step 3669968 / 4001000 | TPS 432.829 | ETA 00:12:44
Time 02:06:53 | Step 3674301 / 4001000 | TPS 433.284 | ETA 00:12:34
Time 02:07:03 | Step 3678627 / 4001000 | TPS 432.572 | ETA 00:12:25
Time 02:07:13 | Step 3682953 / 4001000 | TPS 432.536 | ETA 00:12:15
Time 02:07:23 | Step 3687288 / 4001000 | TPS 433.472 | ETA 00:12:03
Time 02:07:33 | Step 3691617 / 4001000 | TPS 432.827 | ETA 00:11:54
Time 02:07:43 | Step 3695940 / 4001000 | TPS 432.27 | ETA 00:11:45
Time 02:07:53 | Step 3700267 / 4001000 | TPS 432.681 | ETA 00:11:35
Time 02:08:03 | Step 3704599 / 4001000 | TPS 433.119 | ETA 00:11:24
Time 02:08:13 | Step 3708727 / 4001000 | TPS 412.779 | ETA 00:11:48
Time 02:08:23 | Step 3712998 / 4001000 | TPS 427.036 | ETA 00:11:14
Time 02:08:33 | Step 3717263 / 4001000 | TPS 426.42 | ETA 00:11:05
Time 02:08:43 | Step 3721538 / 4001000 | TPS 427.423 | ETA 00:10:53
Time 02:08:53 | Step 3725807 / 4001000 | TPS 426.869 | ETA 00:10:44
Time 02:09:03 | Step 3730081 / 4001000 | TPS 427.322 | ETA 00:10:33
Time 02:09:13 | Step 3734349 / 4001000 | TPS 426.747 | ETA 00:10:24
Time 02:09:23 | Step 3738626 / 4001000 | TPS 427.699 | ETA 00:10:13
Time 02:09:33 | Step 3742898 / 4001000 | TPS 427.195 | ETA 00:10:04
Time 02:09:43 | Step 3747174 / 4001000 | TPS 427.566 | ETA 00:09:53
Time 02:09:53 | Step 3751444 / 4001000 | TPS 426.961 | ETA 00:09:44
Time 02:10:03 | Step 3755713 / 4001000 | TPS 426.878 | ETA 00:09:34
Time 02:10:13 | Step 3759982 / 4001000 | TPS 426.839 | ETA 00:09:24
Time 02:10:23 | Step 3764255 / 4001000 | TPS 427.219 | ETA 00:09:14
Time 02:10:33 | Step 3768532 / 4001000 | TPS 427.657 | ETA 00:09:03
Time 02:10:43 | Step 3772809 / 4001000 | TPS 427.613 | ETA 00:08:53
Time 02:10:53 | Step 3777090 / 4001000 | TPS 428.018 | ETA 00:08:43
Time 02:11:03 | Step 3781371 / 4001000 | TPS 428.006 | ETA 00:08:33
Time 02:11:13 | Step 3785645 / 4001000 | TPS 427.382 | ETA 00:08:23
Time 02:11:23 | Step 3789925 / 4001000 | TPS 427.917 | ETA 00:08:13
Time 02:11:33 | Step 3794209 / 4001000 | TPS 428.318 | ETA 00:08:02
Time 02:11:43 | Step 3798487 / 4001000 | TPS 427.766 | ETA 00:07:53
Time 02:11:53 | Step 3802763 / 4001000 | TPS 427.567 | ETA 00:07:43
Time 02:12:03 | Step 3807039 / 4001000 | TPS 427.571 | ETA 00:07:33
Time 02:12:13 | Step 3811162 / 4001000 | TPS 412.22 | ETA 00:07:40
Time 02:12:23 | Step 3815504 / 4001000 | TPS 434.184 | ETA 00:07:07
Time 02:12:33 | Step 3819848 / 4001000 | TPS 434.122 | ETA 00:06:57
Time 02:12:43 | Step 3824194 / 4001000 | TPS 434.549 | ETA 00:06:46
Time 02:12:53 | Step 3828529 / 4001000 | TPS 433.474 | ETA 00:06:37
Time 02:13:03 | Step 3832869 / 4001000 | TPS 433.915 | ETA 00:06:27
Time 02:13:13 | Step 3837208 / 4001000 | TPS 433.865 | ETA 00:06:17
Time 02:13:23 | Step 3841546 / 4001000 | TPS 433.793 | ETA 00:06:07
Time 02:13:33 | Step 3845889 / 4001000 | TPS 434.288 | ETA 00:05:57
Time 02:13:43 | Step 3850227 / 4001000 | TPS 433.732 | ETA 00:05:47
Time 02:13:53 | Step 3854558 / 4001000 | TPS 433.092 | ETA 00:05:38
Time 02:14:03 | Step 3858894 / 4001000 | TPS 433.535 | ETA 00:05:27
Time 02:14:13 | Step 3863229 / 4001000 | TPS 433.415 | ETA 00:05:17
Time 02:14:23 | Step 3867568 / 4001000 | TPS 433.883 | ETA 00:05:07
Time 02:14:33 | Step 3871907 / 4001000 | TPS 433.89 | ETA 00:04:57
Time 02:14:43 | Step 3876235 / 4001000 | TPS 432.75 | ETA 00:04:48
Time 02:14:53 | Step 3880568 / 4001000 | TPS 433.276 | ETA 00:04:37
Time 02:15:03 | Step 3884906 / 4001000 | TPS 433.788 | ETA 00:04:27
Time 02:15:13 | Step 3889238 / 4001000 | TPS 433.18 | ETA 00:04:18
Time 02:15:23 | Step 3893570 / 4001000 | TPS 433.15 | ETA 00:04:08
Time 02:15:33 | Step 3897902 / 4001000 | TPS 433.164 | ETA 00:03:58
Time 02:15:43 | Step 3902243 / 4001000 | TPS 434.071 | ETA 00:03:47
Time 02:15:53 | Step 3906574 / 4001000 | TPS 433.036 | ETA 00:03:38
Time 02:16:03 | Step 3910704 / 4001000 | TPS 412.983 | ETA 00:03:38
Time 02:16:13 | Step 3915027 / 4001000 | TPS 432.269 | ETA 00:03:18
Time 02:16:23 | Step 3919371 / 4001000 | TPS 434.354 | ETA 00:03:07
Time 02:16:33 | Step 3923721 / 4001000 | TPS 434.912 | ETA 00:02:57
Time 02:16:43 | Step 3928070 / 4001000 | TPS 434.827 | ETA 00:02:47
Time 02:16:53 | Step 3932419 / 4001000 | TPS 434.821 | ETA 00:02:37
Time 02:17:03 | Step 3936767 / 4001000 | TPS 434.732 | ETA 00:02:27
Time 02:17:13 | Step 3941125 / 4001000 | TPS 435.743 | ETA 00:02:17
Time 02:17:23 | Step 3945478 / 4001000 | TPS 435.266 | ETA 00:02:07
Time 02:17:33 | Step 3949831 / 4001000 | TPS 435.251 | ETA 00:01:57
Time 02:17:43 | Step 3954194 / 4001000 | TPS 436.239 | ETA 00:01:47
Time 02:17:53 | Step 3958558 / 4001000 | TPS 436.36 | ETA 00:01:37
Time 02:18:03 | Step 3962934 / 4001000 | TPS 437.593 | ETA 00:01:26
Time 02:18:13 | Step 3967305 / 4001000 | TPS 437.094 | ETA 00:01:17
Time 02:18:23 | Step 3971692 / 4001000 | TPS 438.681 | ETA 00:01:06
Time 02:18:33 | Step 3976074 / 4001000 | TPS 438.111 | ETA 00:00:56
Time 02:18:43 | Step 3980466 / 4001000 | TPS 439.185 | ETA 00:00:46
Time 02:18:53 | Step 3984860 / 4001000 | TPS 439.391 | ETA 00:00:36
Time 02:19:03 | Step 3989283 / 4001000 | TPS 442.24 | ETA 00:00:26
Time 02:19:13 | Step 3993705 / 4001000 | TPS 442.154 | ETA 00:00:16
Time 02:19:23 | Step 3998129 / 4001000 | TPS 442.374 | ETA 00:00:06
Time 02:19:29 | Step 4001000 / 4001000 | TPS 440.834 | ETA 00:00:00
Average TPS: 446.708
---------
-- Neighborlist stats:
28100 normal updates / 1 forced updates / 0 dangerous updates
n_neigh_min: 0 / n_neigh_max: 280 / n_neigh_avg: 233.128
shortest rebuild period: 37
-- Cell list stats:
Dimension: 15, 15, 17
n_min    : 0 / n_max: 79 / n_avg: 14.1176
** run complete **
benchmark.py:035  |          hoomd.run(steps, limit_hours=limit_hours);
** starting run **
Time 02:19:39 | Step 4005435 / 4071000 | TPS 443.49 | ETA 00:02:27
notice(2): Ending run at time step 4009676 as 0.00555556 hours have passed
Time 02:19:49 | Step 4009676 / 4071000 | TPS 424.06 | ETA 00:02:24
Average TPS: 433.774
---------
-- Neighborlist stats:
8 normal updates / 1 forced updates / 0 dangerous updates
n_neigh_min: 0 / n_neigh_max: 280 / n_neigh_avg: 233.155
shortest rebuild period: 99
-- Cell list stats:
Dimension: 15, 15, 17
n_min    : 0 / n_max: 78 / n_avg: 14.1176
** run complete **
benchmark.py:035  |          hoomd.run(steps, limit_hours=limit_hours);
** starting run **
Time 02:19:59 | Step 4014111 / 4079676 | TPS 443.403 | ETA 00:02:27
notice(2): Ending run at time step 4018548 as 0.00555556 hours have passed
Time 02:20:09 | Step 4018548 / 4079676 | TPS 443.706 | ETA 00:02:17
Average TPS: 443.554
---------
-- Neighborlist stats:
11 normal updates / 1 forced updates / 0 dangerous updates
n_neigh_min: 0 / n_neigh_max: 283 / n_neigh_avg: 233.145
shortest rebuild period: 99
-- Cell list stats:
Dimension: 15, 15, 17
n_min    : 0 / n_max: 78 / n_avg: 14.1176
** run complete **
benchmark.py:035  |          hoomd.run(steps, limit_hours=limit_hours);
** starting run **
Time 02:20:19 | Step 4022973 / 4088548 | TPS 442.435 | ETA 00:02:28
notice(2): Ending run at time step 4027407 as 0.00555556 hours have passed
Time 02:20:29 | Step 4027407 / 4088548 | TPS 443.443 | ETA 00:02:17
Average TPS: 442.938
---------
-- Neighborlist stats:
13 normal updates / 1 forced updates / 0 dangerous updates
n_neigh_min: 0 / n_neigh_max: 279 / n_neigh_avg: 233.164
shortest rebuild period: 99
-- Cell list stats:
Dimension: 15, 15, 17
n_min    : 0 / n_max: 79 / n_avg: 14.1176
** run complete **
benchmark.py:035  |          hoomd.run(steps, limit_hours=limit_hours);
** starting run **
Time 02:20:39 | Step 4031848 / 4097407 | TPS 444.06 | ETA 00:02:27
notice(2): Ending run at time step 4036287 as 0.00555556 hours have passed
Time 02:20:49 | Step 4036287 / 4097407 | TPS 443.845 | ETA 00:02:17
Average TPS: 443.952
---------
-- Neighborlist stats:
8 normal updates / 1 forced updates / 0 dangerous updates
n_neigh_min: 0 / n_neigh_max: 278 / n_neigh_avg: 233.136
shortest rebuild period: 99
-- Cell list stats:
Dimension: 15, 15, 17
n_min    : 0 / n_max: 79 / n_avg: 14.1176
** run complete **
Hours to complete 10e6 steps: 6.29803895619
benchmark.py:099  |  meta.dump_metadata(filename = workspace+"/metadata.json", user = {'mps': ptps, 'tps': tps});
----------------------------------------
PBS job ended
Begin PBS Epilogue Thu Feb  8 19:11:04 CST 2018 1518138664
JobID: 22514677.qsched03.quest.it.northwestern.edu
Session ID:			17010
Resources Used:			cput=02:20:53,energy_used=0,mem=276204kb,vmem=157048800kb,walltime=02:21:02
Job exit value:			0
----------------------------------------
